 written on  6Mar2023 at 19:23:18 
          18
          93
    4    6    2    2    2    1    2    2    1    1    2    6    2    2    2
    6    2    2    4    1    1    1    4    1    1    1    1    2    1    1
    1    2    2    1    1    2    4    2    1    2    1    1    1    1    2
    1    1    1    2    1    1    1    1    2    1    2    4    2    1    1
    2    2    1    1    1    2    1    1    1    1    4    1    1    1    4
    2    2    6    2    2    2    6    2    1    1    2    2    1    2    2
    2    6    4
   -3    1    1    1    1   -0.214881    0.000000
   -3    1    1    2    1    0.000000    0.000000
   -3    1    1    3    1   -0.000000    0.000000
   -3    1    1    4    1   -0.000000   -0.000000
   -3    1    1    5    1   -0.000000   -0.000000
   -3    1    1    6    1   -0.000000    0.000024
   -3    1    1    7    1   -0.000000   -0.000000
   -3    1    1    8    1    0.000024    0.000000
   -3    1    1    9    1    0.000910    0.000000
   -3    1    1   10    1    0.000000   -0.000000
   -3    1    1   11    1   -0.000000   -0.000000
   -3    1    1   12    1   -0.000044   -0.000000
   -3    1    1   13    1   -0.000000    0.000000
   -3    1    1   14    1    0.000000   -0.000044
   -3    1    1   15    1    0.000000   -0.000000
   -3    1    1   16    1   -0.000000    0.000000
   -3    1    1   17    1    0.000000    0.000000
   -3    1    1   18    1    0.000000   -0.000000
   -3    1    1    1    2   -0.000000    0.000000
   -3    1    1    2    2   -0.214881    0.000000
   -3    1    1    3    2    0.000000    0.000000
   -3    1    1    4    2    0.000000   -0.000000
   -3    1    1    5    2   -0.000000    0.000024
   -3    1    1    6    2   -0.000000   -0.000000
   -3    1    1    7    2   -0.000024   -0.000000
   -3    1    1    8    2   -0.000000    0.000000
   -3    1    1    9    2    0.000000    0.000000
   -3    1    1   10    2    0.000910    0.000000
   -3    1    1   11    2    0.000044   -0.000000
   -3    1    1   12    2    0.000000   -0.000000
   -3    1    1   13    2   -0.000000   -0.000044
   -3    1    1   14    2   -0.000000    0.000000
   -3    1    1   15    2    0.000000   -0.000000
   -3    1    1   16    2    0.000000   -0.000000
   -3    1    1   17    2   -0.000000   -0.000000
   -3    1    1   18    2   -0.000000   -0.000000
   -3    1    1    1    3   -0.000000   -0.000000
   -3    1    1    2    3    0.000000    0.000000
   -3    1    1    3    3    0.153124    0.000000
   -3    1    1    4    3    0.000000    0.000000
   -3    1    1    5    3   -0.000000    0.000000
   -3    1    1    6    3   -0.006572    0.000000
   -3    1    1    7    3    0.000000    0.000000
   -3    1    1    8    3    0.000000   -0.006572
   -3    1    1    9    3    0.000000   -0.000000
   -3    1    1   10    3    0.000000   -0.000000
   -3    1    1   11    3   -0.000000   -0.000000
   -3    1    1   12    3   -0.000000    0.000059
   -3    1    1   13    3    0.000000   -0.000000
   -3    1    1   14    3    0.000059   -0.000000
   -3    1    1   15    3    0.000000    0.005262
   -3    1    1   16    3   -0.000000   -0.000000
   -3    1    1   17    3   -0.024864    0.000000
   -3    1    1   18    3    0.000000    0.000000
   -3    1    1    1    4   -0.000000    0.000000
   -3    1    1    2    4    0.000000    0.000000
   -3    1    1    3    4   -0.000000    0.000000
   -3    1    1    4    4    0.153124    0.000000
   -3    1    1    5    4    0.006572   -0.000000
   -3    1    1    6    4   -0.000000    0.000000
   -3    1    1    7    4    0.000000   -0.006572
   -3    1    1    8    4    0.000000    0.000000
   -3    1    1    9    4    0.000000   -0.000000
   -3    1    1   10    4    0.000000    0.000000
   -3    1    1   11    4    0.000000    0.000059
   -3    1    1   12    4    0.000000    0.000000
   -3    1    1   13    4   -0.000059   -0.000000
   -3    1    1   14    4   -0.000000   -0.000000
   -3    1    1   15    4    0.000000   -0.000000
   -3    1    1   16    4   -0.000000   -0.005262
   -3    1    1   17    4    0.000000   -0.000000
   -3    1    1   18    4   -0.024864   -0.000000
   -3    1    1    1    5    0.000000    0.000000
   -3    1    1    2    5    0.000000    0.000024
   -3    1    1    3    5    0.000000    0.000000
   -3    1    1    4    5    0.006572   -0.000000
   -3    1    1    5    5    0.151009    0.000000
   -3    1    1    6    5   -0.000000    0.000000
   -3    1    1    7    5   -0.000000    0.006615
   -3    1    1    8    5   -0.000000    0.000000
   -3    1    1    9    5   -0.000000   -0.000000
   -3    1    1   10    5   -0.000000   -0.004613
   -3    1    1   11    5   -0.000000   -0.000033
   -3    1    1   12    5   -0.000000   -0.000000
   -3    1    1   13    5   -0.026428   -0.000000
   -3    1    1   14    5   -0.000000   -0.000000
   -3    1    1   15    5    0.000000    0.000000
   -3    1    1   16    5    0.000000   -0.002683
   -3    1    1   17    5   -0.000000    0.000000
   -3    1    1   18    5   -0.000061   -0.000000
   -3    1    1    1    6    0.000000    0.000024
   -3    1    1    2    6   -0.000000    0.000000
   -3    1    1    3    6   -0.006572   -0.000000
   -3    1    1    4    6    0.000000    0.000000
   -3    1    1    5    6    0.000000   -0.000000
   -3    1    1    6    6    0.151009   -0.000000
   -3    1    1    7    6    0.000000    0.000000
   -3    1    1    8    6    0.000000   -0.006615
   -3    1    1    9    6   -0.000000   -0.004613
   -3    1    1   10    6   -0.000000   -0.000000
   -3    1    1   11    6   -0.000000    0.000000
   -3    1    1   12    6   -0.000000    0.000033
   -3    1    1   13    6   -0.000000   -0.000000
   -3    1    1   14    6   -0.026428    0.000000
   -3    1    1   15    6    0.000000   -0.002683
   -3    1    1   16    6    0.000000    0.000000
   -3    1    1   17    6    0.000061    0.000000
   -3    1    1   18    6   -0.000000   -0.000000
   -3    1    1    1    7    0.000000    0.000000
   -3    1    1    2    7    0.000024    0.000000
   -3    1    1    3    7    0.000000   -0.000000
   -3    1    1    4    7    0.000000    0.006572
   -3    1    1    5    7    0.000000   -0.006615
   -3    1    1    6    7    0.000000   -0.000000
   -3    1    1    7    7    0.151009   -0.000000
   -3    1    1    8    7    0.000000   -0.000000
   -3    1    1    9    7   -0.000000    0.000000
   -3    1    1   10    7   -0.004613    0.000000
   -3    1    1   11    7   -0.026428    0.000000
   -3    1    1   12    7   -0.000000    0.000000
   -3    1    1   13    7   -0.000000    0.000033
   -3    1    1   14    7   -0.000000    0.000000
   -3    1    1   15    7   -0.000000    0.000000
   -3    1    1   16    7    0.002683    0.000000
   -3    1    1   17    7   -0.000000    0.000000
   -3    1    1   18    7    0.000000   -0.000061
   -3    1    1    1    8   -0.000024    0.000000
   -3    1    1    2    8   -0.000000   -0.000000
   -3    1    1    3    8   -0.000000    0.006572
   -3    1    1    4    8   -0.000000   -0.000000
   -3    1    1    5    8   -0.000000   -0.000000
   -3    1    1    6    8   -0.000000    0.006615
   -3    1    1    7    8    0.000000   -0.000000
   -3    1    1    8    8    0.151009    0.000000
   -3    1    1    9    8    0.004613    0.000000
   -3    1    1   10    8   -0.000000   -0.000000
   -3    1    1   11    8   -0.000000   -0.000000
   -3    1    1   12    8   -0.026428    0.000000
   -3    1    1   13    8    0.000000    0.000000
   -3    1    1   14    8   -0.000000   -0.000033
   -3    1    1   15    8   -0.002683   -0.000000
   -3    1    1   16    8    0.000000    0.000000
   -3    1    1   17    8   -0.000000   -0.000061
   -3    1    1   18    8    0.000000    0.000000
   -3    1    1    1    9    0.000910    0.000000
   -3    1    1    2    9    0.000000    0.000000
   -3    1    1    3    9   -0.000000    0.000000
   -3    1    1    4    9   -0.000000    0.000000
   -3    1    1    5    9    0.000000    0.000000
   -3    1    1    6    9    0.000000   -0.004613
   -3    1    1    7    9    0.000000   -0.000000
   -3    1    1    8    9   -0.004613   -0.000000
   -3    1    1    9    9   -0.002379    0.000000
   -3    1    1   10    9    0.000000   -0.000000
   -3    1    1   11    9    0.000000    0.000000
   -3    1    1   12    9   -0.000456   -0.000000
   -3    1    1   13    9   -0.000000    0.000000
   -3    1    1   14    9   -0.000000   -0.000456
   -3    1    1   15    9   -0.000000   -0.000000
   -3    1    1   16    9    0.000000   -0.000000
   -3    1    1   17    9    0.000000   -0.000000
   -3    1    1   18    9   -0.000000   -0.000000
   -3    1    1    1   10   -0.000000    0.000000
   -3    1    1    2   10    0.000910    0.000000
   -3    1    1    3   10   -0.000000    0.000000
   -3    1    1    4   10    0.000000    0.000000
   -3    1    1    5   10    0.000000   -0.004613
   -3    1    1    6   10   -0.000000    0.000000
   -3    1    1    7   10    0.004613    0.000000
   -3    1    1    8   10    0.000000    0.000000
   -3    1    1    9   10   -0.000000   -0.000000
   -3    1    1   10   10   -0.002379    0.000000
   -3    1    1   11   10    0.000456    0.000000
   -3    1    1   12   10   -0.000000    0.000000
   -3    1    1   13   10   -0.000000   -0.000456
   -3    1    1   14   10   -0.000000    0.000000
   -3    1    1   15   10   -0.000000   -0.000000
   -3    1    1   16   10   -0.000000    0.000000
   -3    1    1   17   10   -0.000000   -0.000000
   -3    1    1   18   10   -0.000000   -0.000000
   -3    1    1    1   11   -0.000000    0.000000
   -3    1    1    2   11    0.000044   -0.000000
   -3    1    1    3   11   -0.000000    0.000000
   -3    1    1    4   11    0.000000    0.000059
   -3    1    1    5   11   -0.000000   -0.000033
   -3    1    1    6   11   -0.000000    0.000000
   -3    1    1    7   11    0.026428   -0.000000
   -3    1    1    8   11   -0.000000    0.000000
   -3    1    1    9   11    0.000000   -0.000000
   -3    1    1   10   11    0.000456    0.000000
   -3    1    1   11   11   -0.006067    0.000000
   -3    1    1   12   11   -0.000000   -0.000000
   -3    1    1   13   11    0.000000   -0.000486
   -3    1    1   14   11    0.000000    0.000000
   -3    1    1   15   11   -0.000000   -0.000000
   -3    1    1   16   11   -0.000278   -0.000000
   -3    1    1   17   11    0.000000   -0.000000
   -3    1    1   18   11    0.000000    0.000484
   -3    1    1    1   12   -0.000044   -0.000000
   -3    1    1    2   12    0.000000    0.000000
   -3    1    1    3   12   -0.000000    0.000059
   -3    1    1    4   12    0.000000   -0.000000
   -3    1    1    5   12   -0.000000   -0.000000
   -3    1    1    6   12   -0.000000    0.000033
   -3    1    1    7   12    0.000000    0.000000
   -3    1    1    8   12    0.026428    0.000000
   -3    1    1    9   12   -0.000456    0.000000
   -3    1    1   10   12    0.000000    0.000000
   -3    1    1   11   12    0.000000    0.000000
   -3    1    1   12   12   -0.006067    0.000000
   -3    1    1   13   12   -0.000000    0.000000
   -3    1    1   14   12    0.000000    0.000486
   -3    1    1   15   12    0.000278   -0.000000
   -3    1    1   16   12   -0.000000   -0.000000
   -3    1    1   17   12   -0.000000    0.000484
   -3    1    1   18   12    0.000000    0.000000
   -3    1    1    1   13   -0.000000   -0.000000
   -3    1    1    2   13   -0.000000    0.000044
   -3    1    1    3   13    0.000000    0.000000
   -3    1    1    4   13    0.000059    0.000000
   -3    1    1    5   13    0.026428    0.000000
   -3    1    1    6   13   -0.000000   -0.000000
   -3    1    1    7   13   -0.000000    0.000033
   -3    1    1    8   13    0.000000    0.000000
   -3    1    1    9   13    0.000000    0.000000
   -3    1    1   10   13   -0.000000    0.000456
   -3    1    1   11   13   -0.000000    0.000486
   -3    1    1   12   13   -0.000000   -0.000000
   -3    1    1   13   13   -0.006067    0.000000
   -3    1    1   14   13    0.000000   -0.000000
   -3    1    1   15   13    0.000000   -0.000000
   -3    1    1   16   13    0.000000    0.000278
   -3    1    1   17   13   -0.000000    0.000000
   -3    1    1   18   13    0.000484   -0.000000
   -3    1    1    1   14    0.000000    0.000044
   -3    1    1    2   14    0.000000   -0.000000
   -3    1    1    3   14   -0.000059    0.000000
   -3    1    1    4   14   -0.000000   -0.000000
   -3    1    1    5   14    0.000000    0.000000
   -3    1    1    6   14    0.026428   -0.000000
   -3    1    1    7   14   -0.000000    0.000000
   -3    1    1    8   14   -0.000000   -0.000033
   -3    1    1    9   14    0.000000    0.000456
   -3    1    1   10   14   -0.000000   -0.000000
   -3    1    1   11   14   -0.000000    0.000000
   -3    1    1   12   14   -0.000000   -0.000486
   -3    1    1   13   14   -0.000000   -0.000000
   -3    1    1   14   14   -0.006067    0.000000
   -3    1    1   15   14   -0.000000    0.000278
   -3    1    1   16   14   -0.000000    0.000000
   -3    1    1   17   14   -0.000484    0.000000
   -3    1    1   18   14    0.000000    0.000000
   -3    1    1    1   15   -0.000000   -0.000000
   -3    1    1    2   15    0.000000    0.000000
   -3    1    1    3   15   -0.000000    0.005262
   -3    1    1    4   15   -0.000000    0.000000
   -3    1    1    5   15   -0.000000    0.000000
   -3    1    1    6   15   -0.000000   -0.002683
   -3    1    1    7   15   -0.000000   -0.000000
   -3    1    1    8   15    0.002683   -0.000000
   -3    1    1    9   15    0.000000   -0.000000
   -3    1    1   10   15   -0.000000   -0.000000
   -3    1    1   11   15    0.000000    0.000000
   -3    1    1   12   15    0.000278    0.000000
   -3    1    1   13   15    0.000000   -0.000000
   -3    1    1   14   15   -0.000000   -0.000278
   -3    1    1   15   15    0.003150   -0.000000
   -3    1    1   16   15    0.000000    0.000000
   -3    1    1   17   15    0.000000    0.000524
   -3    1    1   18   15    0.000000    0.000000
   -3    1    1    1   16   -0.000000    0.000000
   -3    1    1    2   16   -0.000000    0.000000
   -3    1    1    3   16   -0.000000   -0.000000
   -3    1    1    4   16   -0.000000   -0.005262
   -3    1    1    5   16   -0.000000   -0.002683
   -3    1    1    6   16   -0.000000    0.000000
   -3    1    1    7   16   -0.002683   -0.000000
   -3    1    1    8   16    0.000000    0.000000
   -3    1    1    9   16   -0.000000    0.000000
   -3    1    1   10   16   -0.000000    0.000000
   -3    1    1   11   16   -0.000278    0.000000
   -3    1    1   12   16    0.000000   -0.000000
   -3    1    1   13   16    0.000000   -0.000278
   -3    1    1   14   16   -0.000000   -0.000000
   -3    1    1   15   16   -0.000000    0.000000
   -3    1    1   16   16    0.003150   -0.000000
   -3    1    1   17   16    0.000000   -0.000000
   -3    1    1   18   16    0.000000   -0.000524
   -3    1    1    1   17    0.000000   -0.000000
   -3    1    1    2   17    0.000000    0.000000
   -3    1    1    3   17    0.024864    0.000000
   -3    1    1    4   17    0.000000    0.000000
   -3    1    1    5   17    0.000000    0.000000
   -3    1    1    6   17   -0.000061   -0.000000
   -3    1    1    7   17    0.000000   -0.000000
   -3    1    1    8   17   -0.000000   -0.000061
   -3    1    1    9   17    0.000000    0.000000
   -3    1    1   10   17   -0.000000    0.000000
   -3    1    1   11   17   -0.000000    0.000000
   -3    1    1   12   17    0.000000   -0.000484
   -3    1    1   13   17    0.000000   -0.000000
   -3    1    1   14   17   -0.000484    0.000000
   -3    1    1   15   17   -0.000000   -0.000524
   -3    1    1   16   17   -0.000000   -0.000000
   -3    1    1   17   17   -0.006181   -0.000000
   -3    1    1   18   17    0.000000    0.000000
   -3    1    1    1   18    0.000000   -0.000000
   -3    1    1    2   18    0.000000   -0.000000
   -3    1    1    3   18    0.000000   -0.000000
   -3    1    1    4   18    0.024864   -0.000000
   -3    1    1    5   18    0.000061    0.000000
   -3    1    1    6   18   -0.000000    0.000000
   -3    1    1    7   18   -0.000000   -0.000061
   -3    1    1    8   18    0.000000   -0.000000
   -3    1    1    9   18   -0.000000   -0.000000
   -3    1    1   10   18   -0.000000    0.000000
   -3    1    1   11   18    0.000000   -0.000484
   -3    1    1   12   18    0.000000    0.000000
   -3    1    1   13   18    0.000484    0.000000
   -3    1    1   14   18    0.000000    0.000000
   -3    1    1   15   18    0.000000    0.000000
   -3    1    1   16   18   -0.000000    0.000524
   -3    1    1   17   18   -0.000000   -0.000000
   -3    1    1   18   18   -0.006181    0.000000
   -2   -2    2    1    1   -0.139330    0.000000
   -2   -2    2    2    1    0.000000   -0.000000
   -2   -2    2    3    1    0.000000    0.000000
   -2   -2    2    4    1   -0.000000    0.000000
   -2   -2    2    5    1   -0.000000   -0.000000
   -2   -2    2    6    1    0.000000    0.000000
   -2   -2    2    7    1    0.000000    0.000000
   -2   -2    2    8    1    0.000000    0.000000
   -2   -2    2    9    1    0.000477    0.000000
   -2   -2    2   10    1    0.000000   -0.000000
   -2   -2    2   11    1    0.000000    0.000000
   -2   -2    2   12    1   -0.000020    0.000000
   -2   -2    2   13    1   -0.000000   -0.000000
   -2   -2    2   14    1    0.000000   -0.000020
   -2   -2    2   15    1   -0.000000    0.000000
   -2   -2    2   16    1    0.000000    0.000000
   -2   -2    2   17    1   -0.000000    0.000000
   -2   -2    2   18    1   -0.000000    0.000000
   -2   -2    2    1    2    0.000000    0.000000
   -2   -2    2    2    2   -0.139330    0.000000
   -2   -2    2    3    2    0.000000    0.000000
   -2   -2    2    4    2   -0.000000    0.000000
   -2   -2    2    5    2    0.000000   -0.000000
   -2   -2    2    6    2   -0.000000   -0.000000
   -2   -2    2    7    2    0.000000   -0.000000
   -2   -2    2    8    2   -0.000000    0.000000
   -2   -2    2    9    2   -0.000000   -0.000000
   -2   -2    2   10    2    0.000477   -0.000000
   -2   -2    2   11    2    0.000020    0.000000
   -2   -2    2   12    2    0.000000    0.000000
   -2   -2    2   13    2    0.000000   -0.000020
   -2   -2    2   14    2   -0.000000   -0.000000
   -2   -2    2   15    2    0.000000    0.000000
   -2   -2    2   16    2    0.000000   -0.000000
   -2   -2    2   17    2   -0.000000   -0.000000
   -2   -2    2   18    2    0.000000    0.000000
   -2   -2    2    1    3    0.000000   -0.000000
   -2   -2    2    2    3    0.000000   -0.000000
   -2   -2    2    3    3    0.038691    0.000000
   -2   -2    2    4    3   -0.000000   -0.000000
   -2   -2    2    5    3    0.000000   -0.000000
   -2   -2    2    6    3   -0.004498    0.000000
   -2   -2    2    7    3   -0.000000    0.000000
   -2   -2    2    8    3    0.000000   -0.004498
   -2   -2    2    9    3   -0.000000   -0.000000
   -2   -2    2   10    3    0.000000    0.000000
   -2   -2    2   11    3    0.000000   -0.000000
   -2   -2    2   12    3   -0.000000    0.000000
   -2   -2    2   13    3   -0.000000   -0.000000
   -2   -2    2   14    3    0.000000   -0.000000
   -2   -2    2   15    3    0.000000   -0.000000
   -2   -2    2   16    3    0.000000   -0.000000
   -2   -2    2   17    3   -0.000000    0.000000
   -2   -2    2   18    3    0.000000    0.000000
   -2   -2    2    1    4   -0.000000   -0.000000
   -2   -2    2    2    4   -0.000000   -0.000000
   -2   -2    2    3    4   -0.000000    0.000000
   -2   -2    2    4    4    0.038691    0.000000
   -2   -2    2    5    4    0.004498    0.000000
   -2   -2    2    6    4    0.000000   -0.000000
   -2   -2    2    7    4   -0.000000   -0.004498
   -2   -2    2    8    4    0.000000    0.000000
   -2   -2    2    9    4    0.000000   -0.000000
   -2   -2    2   10    4   -0.000000   -0.000000
   -2   -2    2   11    4    0.000000    0.000000
   -2   -2    2   12    4    0.000000    0.000000
   -2   -2    2   13    4   -0.000000   -0.000000
   -2   -2    2   14    4    0.000000   -0.000000
   -2   -2    2   15    4   -0.000000    0.000000
   -2   -2    2   16    4   -0.000000   -0.000000
   -2   -2    2   17    4    0.000000   -0.000000
   -2   -2    2   18    4   -0.000000    0.000000
   -2   -2    2    1    5   -0.000000    0.000000
   -2   -2    2    2    5    0.000000    0.000000
   -2   -2    2    3    5    0.000000    0.000000
   -2   -2    2    4    5    0.004498   -0.000000
   -2   -2    2    5    5    0.039237   -0.000000
   -2   -2    2    6    5    0.000000    0.000000
   -2   -2    2    7    5    0.000000    0.004486
   -2   -2    2    8    5   -0.000000   -0.000000
   -2   -2    2    9    5    0.000000   -0.000000
   -2   -2    2   10    5    0.000000   -0.000000
   -2   -2    2   11    5    0.000000   -0.000000
   -2   -2    2   12    5   -0.000000   -0.000000
   -2   -2    2   13    5   -0.000000   -0.000000
   -2   -2    2   14    5    0.000000   -0.000000
   -2   -2    2   15    5   -0.000000    0.000000
   -2   -2    2   16    5    0.000000   -0.000000
   -2   -2    2   17    5    0.000000    0.000000
   -2   -2    2   18    5   -0.000000   -0.000000
   -2   -2    2    1    6    0.000000   -0.000000
   -2   -2    2    2    6   -0.000000    0.000000
   -2   -2    2    3    6   -0.004498   -0.000000
   -2   -2    2    4    6    0.000000    0.000000
   -2   -2    2    5    6    0.000000   -0.000000
   -2   -2    2    6    6    0.039237   -0.000000
   -2   -2    2    7    6   -0.000000    0.000000
   -2   -2    2    8    6    0.000000   -0.004486
   -2   -2    2    9    6   -0.000000    0.000000
   -2   -2    2   10    6   -0.000000    0.000000
   -2   -2    2   11    6   -0.000000    0.000000
   -2   -2    2   12    6    0.000000   -0.000000
   -2   -2    2   13    6   -0.000000   -0.000000
   -2   -2    2   14    6    0.000000   -0.000000
   -2   -2    2   15    6    0.000000    0.000000
   -2   -2    2   16    6   -0.000000   -0.000000
   -2   -2    2   17    6   -0.000000    0.000000
   -2   -2    2   18    6   -0.000000   -0.000000
   -2   -2    2    1    7    0.000000   -0.000000
   -2   -2    2    2    7    0.000000    0.000000
   -2   -2    2    3    7   -0.000000   -0.000000
   -2   -2    2    4    7   -0.000000    0.004498
   -2   -2    2    5    7    0.000000   -0.004486
   -2   -2    2    6    7   -0.000000   -0.000000
   -2   -2    2    7    7    0.039237    0.000000
   -2   -2    2    8    7    0.000000    0.000000
   -2   -2    2    9    7   -0.000000   -0.000000
   -2   -2    2   10    7   -0.000000   -0.000000
   -2   -2    2   11    7   -0.000000    0.000000
   -2   -2    2   12    7   -0.000000   -0.000000
   -2   -2    2   13    7   -0.000000   -0.000000
   -2   -2    2   14    7    0.000000   -0.000000
   -2   -2    2   15    7    0.000000    0.000000
   -2   -2    2   16    7    0.000000    0.000000
   -2   -2    2   17    7    0.000000    0.000000
   -2   -2    2   18    7   -0.000000    0.000000
   -2   -2    2    1    8    0.000000   -0.000000
   -2   -2    2    2    8   -0.000000   -0.000000
   -2   -2    2    3    8    0.000000    0.004498
   -2   -2    2    4    8    0.000000   -0.000000
   -2   -2    2    5    8   -0.000000    0.000000
   -2   -2    2    6    8    0.000000    0.004486
   -2   -2    2    7    8    0.000000   -0.000000
   -2   -2    2    8    8    0.039237    0.000000
   -2   -2    2    9    8   -0.000000    0.000000
   -2   -2    2   10    8   -0.000000   -0.000000
   -2   -2    2   11    8   -0.000000    0.000000
   -2   -2    2   12    8   -0.000000    0.000000
   -2   -2    2   13    8   -0.000000   -0.000000
   -2   -2    2   14    8   -0.000000    0.000000
   -2   -2    2   15    8    0.000000    0.000000
   -2   -2    2   16    8    0.000000    0.000000
   -2   -2    2   17    8   -0.000000    0.000000
   -2   -2    2   18    8    0.000000   -0.000000
   -2   -2    2    1    9    0.000477   -0.000000
   -2   -2    2    2    9   -0.000000    0.000000
   -2   -2    2    3    9   -0.000000    0.000000
   -2   -2    2    4    9    0.000000    0.000000
   -2   -2    2    5    9    0.000000    0.000000
   -2   -2    2    6    9   -0.000000   -0.000000
   -2   -2    2    7    9   -0.000000    0.000000
   -2   -2    2    8    9   -0.000000   -0.000000
   -2   -2    2    9    9   -0.005778    0.000000
   -2   -2    2   10    9   -0.000000    0.000000
   -2   -2    2   11    9    0.000000    0.000000
   -2   -2    2   12    9   -0.000791    0.000000
   -2   -2    2   13    9   -0.000000   -0.000000
   -2   -2    2   14    9    0.000000   -0.000791
   -2   -2    2   15    9   -0.000000    0.000000
   -2   -2    2   16    9   -0.000000    0.000000
   -2   -2    2   17    9    0.000000    0.000000
   -2   -2    2   18    9    0.000000    0.000000
   -2   -2    2    1   10    0.000000    0.000000
   -2   -2    2    2   10    0.000477    0.000000
   -2   -2    2    3   10    0.000000   -0.000000
   -2   -2    2    4   10   -0.000000    0.000000
   -2   -2    2    5   10    0.000000    0.000000
   -2   -2    2    6   10   -0.000000   -0.000000
   -2   -2    2    7   10   -0.000000    0.000000
   -2   -2    2    8   10   -0.000000    0.000000
   -2   -2    2    9   10   -0.000000   -0.000000
   -2   -2    2   10   10   -0.005778   -0.000000
   -2   -2    2   11   10    0.000791   -0.000000
   -2   -2    2   12   10   -0.000000    0.000000
   -2   -2    2   13   10    0.000000   -0.000791
   -2   -2    2   14   10    0.000000    0.000000
   -2   -2    2   15   10   -0.000000   -0.000000
   -2   -2    2   16   10    0.000000   -0.000000
   -2   -2    2   17   10   -0.000000    0.000000
   -2   -2    2   18   10    0.000000   -0.000000
   -2   -2    2    1   11    0.000000   -0.000000
   -2   -2    2    2   11    0.000020   -0.000000
   -2   -2    2    3   11    0.000000    0.000000
   -2   -2    2    4   11    0.000000   -0.000000
   -2   -2    2    5   11    0.000000    0.000000
   -2   -2    2    6   11   -0.000000   -0.000000
   -2   -2    2    7   11   -0.000000   -0.000000
   -2   -2    2    8   11   -0.000000   -0.000000
   -2   -2    2    9   11    0.000000   -0.000000
   -2   -2    2   10   11    0.000791    0.000000
   -2   -2    2   11   11    0.016985   -0.000000
   -2   -2    2   12   11   -0.000000    0.000000
   -2   -2    2   13   11   -0.000000    0.000327
   -2   -2    2   14   11   -0.000000   -0.000000
   -2   -2    2   15   11   -0.000000    0.000000
   -2   -2    2   16   11   -0.000429    0.000000
   -2   -2    2   17   11   -0.000000    0.000000
   -2   -2    2   18   11    0.000000   -0.000327
   -2   -2    2    1   12   -0.000020   -0.000000
   -2   -2    2    2   12    0.000000   -0.000000
   -2   -2    2    3   12   -0.000000   -0.000000
   -2   -2    2    4   12    0.000000   -0.000000
   -2   -2    2    5   12   -0.000000    0.000000
   -2   -2    2    6   12    0.000000    0.000000
   -2   -2    2    7   12   -0.000000    0.000000
   -2   -2    2    8   12   -0.000000   -0.000000
   -2   -2    2    9   12   -0.000791   -0.000000
   -2   -2    2   10   12   -0.000000   -0.000000
   -2   -2    2   11   12   -0.000000   -0.000000
   -2   -2    2   12   12    0.016985   -0.000000
   -2   -2    2   13   12   -0.000000    0.000000
   -2   -2    2   14   12   -0.000000   -0.000327
   -2   -2    2   15   12    0.000429   -0.000000
   -2   -2    2   16   12   -0.000000   -0.000000
   -2   -2    2   17   12    0.000000   -0.000327
   -2   -2    2   18   12   -0.000000    0.000000
   -2   -2    2    1   13   -0.000000    0.000000
   -2   -2    2    2   13    0.000000    0.000020
   -2   -2    2    3   13   -0.000000    0.000000
   -2   -2    2    4   13   -0.000000    0.000000
   -2   -2    2    5   13   -0.000000    0.000000
   -2   -2    2    6   13   -0.000000    0.000000
   -2   -2    2    7   13   -0.000000    0.000000
   -2   -2    2    8   13   -0.000000    0.000000
   -2   -2    2    9   13   -0.000000    0.000000
   -2   -2    2   10   13    0.000000    0.000791
   -2   -2    2   11   13   -0.000000   -0.000327
   -2   -2    2   12   13   -0.000000   -0.000000
   -2   -2    2   13   13    0.016985   -0.000000
   -2   -2    2   14   13   -0.000000    0.000000
   -2   -2    2   15   13    0.000000    0.000000
   -2   -2    2   16   13    0.000000    0.000429
   -2   -2    2   17   13   -0.000000   -0.000000
   -2   -2    2   18   13   -0.000327    0.000000
   -2   -2    2    1   14    0.000000    0.000020
   -2   -2    2    2   14   -0.000000    0.000000
   -2   -2    2    3   14    0.000000    0.000000
   -2   -2    2    4   14    0.000000    0.000000
   -2   -2    2    5   14    0.000000    0.000000
   -2   -2    2    6   14    0.000000    0.000000
   -2   -2    2    7   14    0.000000    0.000000
   -2   -2    2    8   14   -0.000000   -0.000000
   -2   -2    2    9   14    0.000000    0.000791
   -2   -2    2   10   14    0.000000   -0.000000
   -2   -2    2   11   14   -0.000000    0.000000
   -2   -2    2   12   14   -0.000000    0.000327
   -2   -2    2   13   14   -0.000000   -0.000000
   -2   -2    2   14   14    0.016985    0.000000
   -2   -2    2   15   14   -0.000000    0.000429
   -2   -2    2   16   14    0.000000    0.000000
   -2   -2    2   17   14    0.000327    0.000000
   -2   -2    2   18   14   -0.000000   -0.000000
   -2   -2    2    1   15   -0.000000   -0.000000
   -2   -2    2    2   15    0.000000   -0.000000
   -2   -2    2    3   15    0.000000    0.000000
   -2   -2    2    4   15   -0.000000   -0.000000
   -2   -2    2    5   15   -0.000000   -0.000000
   -2   -2    2    6   15    0.000000   -0.000000
   -2   -2    2    7   15    0.000000   -0.000000
   -2   -2    2    8   15    0.000000   -0.000000
   -2   -2    2    9   15   -0.000000   -0.000000
   -2   -2    2   10   15   -0.000000    0.000000
   -2   -2    2   11   15   -0.000000   -0.000000
   -2   -2    2   12   15    0.000429    0.000000
   -2   -2    2   13   15    0.000000   -0.000000
   -2   -2    2   14   15   -0.000000   -0.000429
   -2   -2    2   15   15   -0.007218   -0.000000
   -2   -2    2   16   15   -0.000000    0.000000
   -2   -2    2   17   15    0.000000    0.000933
   -2   -2    2   18   15    0.000000    0.000000
   -2   -2    2    1   16    0.000000   -0.000000
   -2   -2    2    2   16    0.000000    0.000000
   -2   -2    2    3   16    0.000000    0.000000
   -2   -2    2    4   16   -0.000000    0.000000
   -2   -2    2    5   16    0.000000    0.000000
   -2   -2    2    6   16   -0.000000    0.000000
   -2   -2    2    7   16    0.000000   -0.000000
   -2   -2    2    8   16    0.000000   -0.000000
   -2   -2    2    9   16   -0.000000   -0.000000
   -2   -2    2   10   16    0.000000    0.000000
   -2   -2    2   11   16   -0.000429   -0.000000
   -2   -2    2   12   16   -0.000000    0.000000
   -2   -2    2   13   16    0.000000   -0.000429
   -2   -2    2   14   16    0.000000   -0.000000
   -2   -2    2   15   16   -0.000000   -0.000000
   -2   -2    2   16   16   -0.007218    0.000000
   -2   -2    2   17   16   -0.000000    0.000000
   -2   -2    2   18   16    0.000000   -0.000933
   -2   -2    2    1   17   -0.000000   -0.000000
   -2   -2    2    2   17   -0.000000    0.000000
   -2   -2    2    3   17   -0.000000   -0.000000
   -2   -2    2    4   17    0.000000    0.000000
   -2   -2    2    5   17    0.000000   -0.000000
   -2   -2    2    6   17   -0.000000   -0.000000
   -2   -2    2    7   17    0.000000   -0.000000
   -2   -2    2    8   17   -0.000000   -0.000000
   -2   -2    2    9   17    0.000000   -0.000000
   -2   -2    2   10   17   -0.000000   -0.000000
   -2   -2    2   11   17   -0.000000   -0.000000
   -2   -2    2   12   17    0.000000    0.000327
   -2   -2    2   13   17   -0.000000    0.000000
   -2   -2    2   14   17    0.000327   -0.000000
   -2   -2    2   15   17    0.000000   -0.000933
   -2   -2    2   16   17   -0.000000   -0.000000
   -2   -2    2   17   17    0.017044   -0.000000
   -2   -2    2   18   17   -0.000000    0.000000
   -2   -2    2    1   18   -0.000000   -0.000000
   -2   -2    2    2   18    0.000000   -0.000000
   -2   -2    2    3   18    0.000000   -0.000000
   -2   -2    2    4   18   -0.000000   -0.000000
   -2   -2    2    5   18   -0.000000    0.000000
   -2   -2    2    6   18   -0.000000    0.000000
   -2   -2    2    7   18   -0.000000   -0.000000
   -2   -2    2    8   18    0.000000    0.000000
   -2   -2    2    9   18    0.000000   -0.000000
   -2   -2    2   10   18    0.000000    0.000000
   -2   -2    2   11   18    0.000000    0.000327
   -2   -2    2   12   18   -0.000000   -0.000000
   -2   -2    2   13   18   -0.000327   -0.000000
   -2   -2    2   14   18   -0.000000    0.000000
   -2   -2    2   15   18    0.000000   -0.000000
   -2   -2    2   16   18    0.000000    0.000933
   -2   -2    2   17   18   -0.000000   -0.000000
   -2   -2    2   18   18    0.017044    0.000000
   -2   -1    1    1    1   -0.028382    0.000000
   -2   -1    1    2    1    0.000000   -0.000000
   -2   -1    1    3    1    0.018570    0.000000
   -2   -1    1    4    1    0.001642    0.000000
   -2   -1    1    5    1    0.018110   -0.000000
   -2   -1    1    6    1   -0.001606   -0.000000
   -2   -1    1    7    1    0.000000    0.010086
   -2   -1    1    8    1    0.000000   -0.010084
   -2   -1    1    9    1    0.001294   -0.000000
   -2   -1    1   10    1   -0.000591   -0.000000
   -2   -1    1   11    1    0.009736   -0.000000
   -2   -1    1   12    1    0.000011    0.000000
   -2   -1    1   13    1    0.000000   -0.000640
   -2   -1    1   14    1    0.000000   -0.000373
   -2   -1    1   15    1    0.005686    0.000000
   -2   -1    1   16    1    0.000288    0.000000
   -2   -1    1   17    1   -0.000000    0.000398
   -2   -1    1   18    1   -0.000000    0.000638
   -2   -1    1    1    2   -0.000000    0.000000
   -2   -1    1    2    2   -0.028382    0.000000
   -2   -1    1    3    2   -0.001642    0.000000
   -2   -1    1    4    2    0.018570   -0.000000
   -2   -1    1    5    2    0.001606    0.000000
   -2   -1    1    6    2    0.018110   -0.000000
   -2   -1    1    7    2   -0.000000   -0.010084
   -2   -1    1    8    2   -0.000000   -0.010086
   -2   -1    1    9    2    0.000591    0.000000
   -2   -1    1   10    2    0.001294    0.000000
   -2   -1    1   11    2   -0.000011   -0.000000
   -2   -1    1   12    2    0.009736    0.000000
   -2   -1    1   13    2    0.000000   -0.000373
   -2   -1    1   14    2   -0.000000    0.000640
   -2   -1    1   15    2   -0.000288    0.000000
   -2   -1    1   16    2    0.005686    0.000000
   -2   -1    1   17    2    0.000000    0.000638
   -2   -1    1   18    2   -0.000000   -0.000398
   -2   -1    1    1    3   -0.018570   -0.000000
   -2   -1    1    2    3    0.001642    0.000000
   -2   -1    1    3    3    0.022423    0.000000
   -2   -1    1    4    3    0.000000    0.000000
   -2   -1    1    5    3    0.001824   -0.000000
   -2   -1    1    6    3   -0.006690    0.000000
   -2   -1    1    7    3    0.000000   -0.004867
   -2   -1    1    8    3   -0.000000   -0.003832
   -2   -1    1    9    3   -0.019289    0.000000
   -2   -1    1   10    3   -0.000475   -0.000000
   -2   -1    1   11    3    0.018836    0.000000
   -2   -1    1   12    3    0.000284    0.000000
   -2   -1    1   13    3    0.000000   -0.000024
   -2   -1    1   14    3    0.000000    0.001690
   -2   -1    1   15    3    0.003703   -0.000000
   -2   -1    1   16    3    0.001233    0.000000
   -2   -1    1   17    3   -0.000000    0.001202
   -2   -1    1   18    3    0.000000    0.000478
   -2   -1    1    1    4   -0.001642    0.000000
   -2   -1    1    2    4   -0.018570    0.000000
   -2   -1    1    3    4    0.000000   -0.000000
   -2   -1    1    4    4    0.022423    0.000000
   -2   -1    1    5    4    0.006690    0.000000
   -2   -1    1    6    4    0.001824   -0.000000
   -2   -1    1    7    4   -0.000000   -0.003832
   -2   -1    1    8    4    0.000000    0.004867
   -2   -1    1    9    4    0.000475   -0.000000
   -2   -1    1   10    4   -0.019289   -0.000000
   -2   -1    1   11    4   -0.000284   -0.000000
   -2   -1    1   12    4    0.018836    0.000000
   -2   -1    1   13    4   -0.000000    0.001690
   -2   -1    1   14    4   -0.000000    0.000024
   -2   -1    1   15    4   -0.001233   -0.000000
   -2   -1    1   16    4    0.003703   -0.000000
   -2   -1    1   17    4   -0.000000    0.000478
   -2   -1    1   18    4   -0.000000   -0.001202
   -2   -1    1    1    5   -0.018110   -0.000000
   -2   -1    1    2    5   -0.001606    0.000000
   -2   -1    1    3    5    0.001824    0.000000
   -2   -1    1    4    5    0.006690    0.000000
   -2   -1    1    5    5    0.021239    0.000000
   -2   -1    1    6    5   -0.000000   -0.000000
   -2   -1    1    7    5    0.000000    0.003825
   -2   -1    1    8    5   -0.000000    0.004876
   -2   -1    1    9    5    0.010408   -0.000000
   -2   -1    1   10    5   -0.000990   -0.000000
   -2   -1    1   11    5    0.018912   -0.000000
   -2   -1    1   12    5   -0.000230    0.000000
   -2   -1    1   13    5   -0.000000   -0.000472
   -2   -1    1   14    5   -0.000000   -0.001194
   -2   -1    1   15    5   -0.014601   -0.000000
   -2   -1    1   16    5   -0.000301   -0.000000
   -2   -1    1   17    5   -0.000000   -0.001634
   -2   -1    1   18    5   -0.000000    0.000018
   -2   -1    1    1    6    0.001606    0.000000
   -2   -1    1    2    6   -0.018110    0.000000
   -2   -1    1    3    6   -0.006690   -0.000000
   -2   -1    1    4    6    0.001824    0.000000
   -2   -1    1    5    6    0.000000   -0.000000
   -2   -1    1    6    6    0.021239   -0.000000
   -2   -1    1    7    6    0.000000    0.004876
   -2   -1    1    8    6    0.000000   -0.003825
   -2   -1    1    9    6    0.000990    0.000000
   -2   -1    1   10    6    0.010408    0.000000
   -2   -1    1   11    6    0.000230    0.000000
   -2   -1    1   12    6    0.018912    0.000000
   -2   -1    1   13    6   -0.000000   -0.001194
   -2   -1    1   14    6    0.000000    0.000472
   -2   -1    1   15    6    0.000301    0.000000
   -2   -1    1   16    6   -0.014601   -0.000000
   -2   -1    1   17    6    0.000000    0.000018
   -2   -1    1   18    6   -0.000000    0.001634
   -2   -1    1    1    7   -0.000000    0.010086
   -2   -1    1    2    7    0.000000   -0.010084
   -2   -1    1    3    7   -0.000000    0.004867
   -2   -1    1    4    7    0.000000    0.003832
   -2   -1    1    5    7   -0.000000   -0.003825
   -2   -1    1    6    7    0.000000   -0.004876
   -2   -1    1    7    7   -0.074196   -0.000000
   -2   -1    1    8    7   -0.000000    0.000000
   -2   -1    1    9    7   -0.000000    0.000110
   -2   -1    1   10    7   -0.000000   -0.001096
   -2   -1    1   11    7   -0.000000   -0.001736
   -2   -1    1   12    7    0.000000    0.001754
   -2   -1    1   13    7    0.011862   -0.000000
   -2   -1    1   14    7    0.001008   -0.000000
   -2   -1    1   15    7    0.000000    0.001451
   -2   -1    1   16    7   -0.000000   -0.000831
   -2   -1    1   17    7    0.011874    0.000000
   -2   -1    1   18    7   -0.001011    0.000000
   -2   -1    1    1    8    0.000000   -0.010084
   -2   -1    1    2    8   -0.000000   -0.010086
   -2   -1    1    3    8    0.000000    0.003832
   -2   -1    1    4    8   -0.000000   -0.004867
   -2   -1    1    5    8   -0.000000   -0.004876
   -2   -1    1    6    8   -0.000000    0.003825
   -2   -1    1    7    8   -0.000000    0.000000
   -2   -1    1    8    8   -0.074196   -0.000000
   -2   -1    1    9    8    0.000000   -0.001096
   -2   -1    1   10    8   -0.000000   -0.000110
   -2   -1    1   11    8   -0.000000    0.001754
   -2   -1    1   12    8   -0.000000    0.001736
   -2   -1    1   13    8   -0.001009    0.000000
   -2   -1    1   14    8    0.011862    0.000000
   -2   -1    1   15    8    0.000000   -0.000831
   -2   -1    1   16    8    0.000000   -0.001451
   -2   -1    1   17    8    0.001011    0.000000
   -2   -1    1   18    8    0.011874   -0.000000
   -2   -1    1    1    9    0.001294    0.000000
   -2   -1    1    2    9    0.000591    0.000000
   -2   -1    1    3    9    0.019289    0.000000
   -2   -1    1    4    9   -0.000475    0.000000
   -2   -1    1    5    9   -0.010408    0.000000
   -2   -1    1    6    9   -0.000990   -0.000000
   -2   -1    1    7    9   -0.000000    0.000110
   -2   -1    1    8    9   -0.000000   -0.001096
   -2   -1    1    9    9   -0.008515   -0.000000
   -2   -1    1   10    9   -0.000000   -0.000000
   -2   -1    1   11    9    0.002111    0.000000
   -2   -1    1   12    9    0.000460    0.000000
   -2   -1    1   13    9    0.000000   -0.000063
   -2   -1    1   14    9   -0.000000    0.000108
   -2   -1    1   15    9    0.003509   -0.000000
   -2   -1    1   16    9    0.000252    0.000000
   -2   -1    1   17    9   -0.000000    0.000002
   -2   -1    1   18    9   -0.000000    0.000232
   -2   -1    1    1   10   -0.000591   -0.000000
   -2   -1    1    2   10    0.001294   -0.000000
   -2   -1    1    3   10    0.000475    0.000000
   -2   -1    1    4   10    0.019289   -0.000000
   -2   -1    1    5   10    0.000990    0.000000
   -2   -1    1    6   10   -0.010408    0.000000
   -2   -1    1    7   10   -0.000000   -0.001096
   -2   -1    1    8   10    0.000000   -0.000110
   -2   -1    1    9   10    0.000000   -0.000000
   -2   -1    1   10   10   -0.008515   -0.000000
   -2   -1    1   11   10   -0.000460   -0.000000
   -2   -1    1   12   10    0.002111   -0.000000
   -2   -1    1   13   10   -0.000000    0.000108
   -2   -1    1   14   10   -0.000000    0.000063
   -2   -1    1   15   10   -0.000252   -0.000000
   -2   -1    1   16   10    0.003509    0.000000
   -2   -1    1   17   10   -0.000000    0.000232
   -2   -1    1   18   10   -0.000000   -0.000002
   -2   -1    1    1   11    0.009736   -0.000000
   -2   -1    1    2   11   -0.000011   -0.000000
   -2   -1    1    3   11   -0.018836   -0.000000
   -2   -1    1    4   11    0.000284   -0.000000
   -2   -1    1    5   11   -0.018912    0.000000
   -2   -1    1    6   11   -0.000230   -0.000000
   -2   -1    1    7   11    0.000000   -0.001736
   -2   -1    1    8   11    0.000000    0.001754
   -2   -1    1    9   11    0.002111    0.000000
   -2   -1    1   10   11   -0.000460   -0.000000
   -2   -1    1   11   11   -0.012428   -0.000000
   -2   -1    1   12   11    0.000000   -0.000000
   -2   -1    1   13   11    0.000000    0.000010
   -2   -1    1   14   11    0.000000   -0.000403
   -2   -1    1   15   11    0.003572    0.000000
   -2   -1    1   16   11    0.000280    0.000000
   -2   -1    1   17   11   -0.000000    0.000403
   -2   -1    1   18   11    0.000000   -0.000012
   -2   -1    1    1   12    0.000011    0.000000
   -2   -1    1    2   12    0.009736    0.000000
   -2   -1    1    3   12   -0.000284    0.000000
   -2   -1    1    4   12   -0.018836   -0.000000
   -2   -1    1    5   12    0.000230    0.000000
   -2   -1    1    6   12   -0.018912   -0.000000
   -2   -1    1    7   12    0.000000    0.001754
   -2   -1    1    8   12   -0.000000    0.001736
   -2   -1    1    9   12    0.000460   -0.000000
   -2   -1    1   10   12    0.002111    0.000000
   -2   -1    1   11   12   -0.000000    0.000000
   -2   -1    1   12   12   -0.012428   -0.000000
   -2   -1    1   13   12   -0.000000   -0.000403
   -2   -1    1   14   12    0.000000   -0.000010
   -2   -1    1   15   12   -0.000280   -0.000000
   -2   -1    1   16   12    0.003572    0.000000
   -2   -1    1   17   12    0.000000   -0.000012
   -2   -1    1   18   12   -0.000000   -0.000403
   -2   -1    1    1   13   -0.000000    0.000640
   -2   -1    1    2   13    0.000000    0.000373
   -2   -1    1    3   13   -0.000000   -0.000024
   -2   -1    1    4   13   -0.000000    0.001690
   -2   -1    1    5   13   -0.000000   -0.000472
   -2   -1    1    6   13    0.000000   -0.001194
   -2   -1    1    7   13   -0.011862    0.000000
   -2   -1    1    8   13    0.001009   -0.000000
   -2   -1    1    9   13   -0.000000    0.000063
   -2   -1    1   10   13    0.000000   -0.000108
   -2   -1    1   11   13   -0.000000   -0.000010
   -2   -1    1   12   13   -0.000000    0.000403
   -2   -1    1   13   13    0.008991   -0.000000
   -2   -1    1   14   13   -0.000000    0.000000
   -2   -1    1   15   13    0.000000    0.000270
   -2   -1    1   16   13    0.000000   -0.000021
   -2   -1    1   17   13   -0.008252    0.000000
   -2   -1    1   18   13   -0.000177    0.000000
   -2   -1    1    1   14    0.000000    0.000373
   -2   -1    1    2   14    0.000000   -0.000640
   -2   -1    1    3   14    0.000000    0.001690
   -2   -1    1    4   14   -0.000000    0.000024
   -2   -1    1    5   14   -0.000000   -0.001194
   -2   -1    1    6   14    0.000000    0.000472
   -2   -1    1    7   14   -0.001009    0.000000
   -2   -1    1    8   14   -0.011862    0.000000
   -2   -1    1    9   14    0.000000   -0.000108
   -2   -1    1   10   14   -0.000000   -0.000063
   -2   -1    1   11   14   -0.000000    0.000403
   -2   -1    1   12   14    0.000000    0.000010
   -2   -1    1   13   14    0.000000    0.000000
   -2   -1    1   14   14    0.008991   -0.000000
   -2   -1    1   15   14   -0.000000   -0.000021
   -2   -1    1   16   14    0.000000   -0.000270
   -2   -1    1   17   14    0.000177   -0.000000
   -2   -1    1   18   14   -0.008252   -0.000000
   -2   -1    1    1   15    0.005686    0.000000
   -2   -1    1    2   15   -0.000288   -0.000000
   -2   -1    1    3   15   -0.003703    0.000000
   -2   -1    1    4   15    0.001233    0.000000
   -2   -1    1    5   15    0.014601    0.000000
   -2   -1    1    6   15   -0.000301   -0.000000
   -2   -1    1    7   15   -0.000000    0.001451
   -2   -1    1    8   15    0.000000   -0.000831
   -2   -1    1    9   15    0.003509   -0.000000
   -2   -1    1   10   15   -0.000252   -0.000000
   -2   -1    1   11   15    0.003572   -0.000000
   -2   -1    1   12   15   -0.000280    0.000000
   -2   -1    1   13   15   -0.000000   -0.000270
   -2   -1    1   14   15    0.000000    0.000021
   -2   -1    1   15   15   -0.002848    0.000000
   -2   -1    1   16   15    0.000000    0.000000
   -2   -1    1   17   15    0.000000   -0.000112
   -2   -1    1   18   15    0.000000    0.000175
   -2   -1    1    1   16    0.000288    0.000000
   -2   -1    1    2   16    0.005686    0.000000
   -2   -1    1    3   16   -0.001233    0.000000
   -2   -1    1    4   16   -0.003703    0.000000
   -2   -1    1    5   16    0.000301   -0.000000
   -2   -1    1    6   16    0.014601   -0.000000
   -2   -1    1    7   16   -0.000000   -0.000831
   -2   -1    1    8   16    0.000000   -0.001451
   -2   -1    1    9   16    0.000252   -0.000000
   -2   -1    1   10   16    0.003509   -0.000000
   -2   -1    1   11   16    0.000280    0.000000
   -2   -1    1   12   16    0.003572   -0.000000
   -2   -1    1   13   16    0.000000    0.000021
   -2   -1    1   14   16   -0.000000    0.000270
   -2   -1    1   15   16    0.000000    0.000000
   -2   -1    1   16   16   -0.002848   -0.000000
   -2   -1    1   17   16    0.000000    0.000175
   -2   -1    1   18   16   -0.000000    0.000112
   -2   -1    1    1   17   -0.000000   -0.000398
   -2   -1    1    2   17   -0.000000   -0.000638
   -2   -1    1    3   17    0.000000    0.001202
   -2   -1    1    4   17    0.000000    0.000478
   -2   -1    1    5   17   -0.000000   -0.001634
   -2   -1    1    6   17   -0.000000    0.000018
   -2   -1    1    7   17   -0.011874   -0.000000
   -2   -1    1    8   17   -0.001011    0.000000
   -2   -1    1    9   17    0.000000   -0.000002
   -2   -1    1   10   17   -0.000000   -0.000232
   -2   -1    1   11   17   -0.000000   -0.000403
   -2   -1    1   12   17   -0.000000    0.000012
   -2   -1    1   13   17   -0.008252    0.000000
   -2   -1    1   14   17    0.000177   -0.000000
   -2   -1    1   15   17   -0.000000    0.000112
   -2   -1    1   16   17   -0.000000   -0.000175
   -2   -1    1   17   17    0.008712   -0.000000
   -2   -1    1   18   17   -0.000000   -0.000000
   -2   -1    1    1   18    0.000000   -0.000638
   -2   -1    1    2   18   -0.000000    0.000398
   -2   -1    1    3   18    0.000000    0.000478
   -2   -1    1    4   18   -0.000000   -0.001202
   -2   -1    1    5   18   -0.000000    0.000018
   -2   -1    1    6   18   -0.000000    0.001634
   -2   -1    1    7   18    0.001011    0.000000
   -2   -1    1    8   18   -0.011874    0.000000
   -2   -1    1    9   18    0.000000   -0.000232
   -2   -1    1   10   18   -0.000000    0.000002
   -2   -1    1   11   18   -0.000000    0.000012
   -2   -1    1   12   18    0.000000    0.000403
   -2   -1    1   13   18   -0.000177   -0.000000
   -2   -1    1   14   18   -0.008252    0.000000
   -2   -1    1   15   18    0.000000   -0.000175
   -2   -1    1   16   18   -0.000000   -0.000112
   -2   -1    1   17   18   -0.000000   -0.000000
   -2   -1    1   18   18    0.008712   -0.000000
   -2   -1    2    1    1   -0.028382    0.000000
   -2   -1    2    2    1    0.000000    0.000000
   -2   -1    2    3    1    0.018570    0.000000
   -2   -1    2    4    1   -0.000000    0.001642
   -2   -1    2    5    1   -0.000000   -0.010086
   -2   -1    2    6    1   -0.010084   -0.000000
   -2   -1    2    7    1    0.018110   -0.000000
   -2   -1    2    8    1    0.000000   -0.001606
   -2   -1    2    9    1    0.001294   -0.000000
   -2   -1    2   10    1   -0.000000   -0.000591
   -2   -1    2   11    1    0.000000    0.000640
   -2   -1    2   12    1   -0.000373    0.000000
   -2   -1    2   13    1    0.009736   -0.000000
   -2   -1    2   14    1    0.000000    0.000011
   -2   -1    2   15    1   -0.005686   -0.000000
   -2   -1    2   16    1   -0.000000   -0.000288
   -2   -1    2   17    1   -0.000000   -0.000398
   -2   -1    2   18    1    0.000638   -0.000000
   -2   -1    2    1    2   -0.000000    0.000000
   -2   -1    2    2    2   -0.028382   -0.000000
   -2   -1    2    3    2   -0.000000    0.001642
   -2   -1    2    4    2    0.018570    0.000000
   -2   -1    2    5    2    0.010084   -0.000000
   -2   -1    2    6    2   -0.000000    0.010086
   -2   -1    2    7    2    0.000000   -0.001606
   -2   -1    2    8    2    0.018110    0.000000
   -2   -1    2    9    2   -0.000000   -0.000591
   -2   -1    2   10    2    0.001294   -0.000000
   -2   -1    2   11    2    0.000373   -0.000000
   -2   -1    2   12    2    0.000000   -0.000640
   -2   -1    2   13    2    0.000000    0.000011
   -2   -1    2   14    2    0.009736   -0.000000
   -2   -1    2   15    2   -0.000000   -0.000288
   -2   -1    2   16    2   -0.005686    0.000000
   -2   -1    2   17    2   -0.000638   -0.000000
   -2   -1    2   18    2   -0.000000    0.000398
   -2   -1    2    1    3   -0.018570   -0.000000
   -2   -1    2    2    3    0.000000    0.001642
   -2   -1    2    3    3    0.022423   -0.000000
   -2   -1    2    4    3    0.000000    0.000000
   -2   -1    2    5    3    0.000000    0.004867
   -2   -1    2    6    3   -0.003832    0.000000
   -2   -1    2    7    3    0.001824    0.000000
   -2   -1    2    8    3   -0.000000   -0.006690
   -2   -1    2    9    3   -0.019289    0.000000
   -2   -1    2   10    3    0.000000   -0.000475
   -2   -1    2   11    3   -0.000000    0.000024
   -2   -1    2   12    3    0.001690   -0.000000
   -2   -1    2   13    3    0.018836   -0.000000
   -2   -1    2   14    3    0.000000    0.000284
   -2   -1    2   15    3   -0.003703   -0.000000
   -2   -1    2   16    3    0.000000   -0.001233
   -2   -1    2   17    3   -0.000000   -0.001202
   -2   -1    2   18    3    0.000478    0.000000
   -2   -1    2    1    4    0.000000    0.001642
   -2   -1    2    2    4   -0.018570    0.000000
   -2   -1    2    3    4    0.000000   -0.000000
   -2   -1    2    4    4    0.022423   -0.000000
   -2   -1    2    5    4    0.003832    0.000000
   -2   -1    2    6    4   -0.000000   -0.004867
   -2   -1    2    7    4    0.000000   -0.006690
   -2   -1    2    8    4    0.001824    0.000000
   -2   -1    2    9    4   -0.000000   -0.000475
   -2   -1    2   10    4   -0.019289   -0.000000
   -2   -1    2   11    4   -0.001690    0.000000
   -2   -1    2   12    4    0.000000   -0.000024
   -2   -1    2   13    4   -0.000000    0.000284
   -2   -1    2   14    4    0.018836   -0.000000
   -2   -1    2   15    4   -0.000000   -0.001233
   -2   -1    2   16    4   -0.003703   -0.000000
   -2   -1    2   17    4   -0.000478    0.000000
   -2   -1    2   18    4   -0.000000    0.001202
   -2   -1    2    1    5   -0.000000   -0.010086
   -2   -1    2    2    5   -0.010084    0.000000
   -2   -1    2    3    5   -0.000000   -0.004867
   -2   -1    2    4    5    0.003832   -0.000000
   -2   -1    2    5    5   -0.074196   -0.000000
   -2   -1    2    6    5   -0.000000    0.000000
   -2   -1    2    7    5   -0.000000    0.003825
   -2   -1    2    8    5   -0.004876    0.000000
   -2   -1    2    9    5   -0.000000   -0.000110
   -2   -1    2   10    5   -0.001096    0.000000
   -2   -1    2   11    5    0.011862   -0.000000
   -2   -1    2   12    5   -0.000000    0.001009
   -2   -1    2   13    5   -0.000000    0.001736
   -2   -1    2   14    5    0.001754   -0.000000
   -2   -1    2   15    5   -0.000000    0.001451
   -2   -1    2   16    5    0.000831   -0.000000
   -2   -1    2   17    5    0.011874    0.000000
   -2   -1    2   18    5   -0.000000   -0.001011
   -2   -1    2    1    6    0.010084   -0.000000
   -2   -1    2    2    6   -0.000000    0.010086
   -2   -1    2    3    6   -0.003832    0.000000
   -2   -1    2    4    6   -0.000000    0.004867
   -2   -1    2    5    6    0.000000   -0.000000
   -2   -1    2    6    6   -0.074196   -0.000000
   -2   -1    2    7    6    0.004876    0.000000
   -2   -1    2    8    6   -0.000000   -0.003825
   -2   -1    2    9    6    0.001096   -0.000000
   -2   -1    2   10    6   -0.000000    0.000110
   -2   -1    2   11    6    0.000000    0.001009
   -2   -1    2   12    6    0.011862    0.000000
   -2   -1    2   13    6   -0.001754   -0.000000
   -2   -1    2   14    6   -0.000000   -0.001736
   -2   -1    2   15    6   -0.000831    0.000000
   -2   -1    2   16    6   -0.000000   -0.001451
   -2   -1    2   17    6   -0.000000   -0.001011
   -2   -1    2   18    6    0.011874   -0.000000
   -2   -1    2    1    7   -0.018110   -0.000000
   -2   -1    2    2    7    0.000000   -0.001606
   -2   -1    2    3    7    0.001824   -0.000000
   -2   -1    2    4    7   -0.000000    0.006690
   -2   -1    2    5    7    0.000000   -0.003825
   -2   -1    2    6    7    0.004876   -0.000000
   -2   -1    2    7    7    0.021239    0.000000
   -2   -1    2    8    7   -0.000000   -0.000000
   -2   -1    2    9    7    0.010408   -0.000000
   -2   -1    2   10    7   -0.000000   -0.000990
   -2   -1    2   11    7    0.000000    0.000472
   -2   -1    2   12    7   -0.001194    0.000000
   -2   -1    2   13    7    0.018912   -0.000000
   -2   -1    2   14    7   -0.000000   -0.000230
   -2   -1    2   15    7    0.014601    0.000000
   -2   -1    2   16    7    0.000000    0.000301
   -2   -1    2   17    7    0.000000    0.001634
   -2   -1    2   18    7    0.000018    0.000000
   -2   -1    2    1    8    0.000000   -0.001606
   -2   -1    2    2    8   -0.018110   -0.000000
   -2   -1    2    3    8    0.000000    0.006690
   -2   -1    2    4    8    0.001824   -0.000000
   -2   -1    2    5    8   -0.004876   -0.000000
   -2   -1    2    6    8    0.000000    0.003825
   -2   -1    2    7    8   -0.000000    0.000000
   -2   -1    2    8    8    0.021239    0.000000
   -2   -1    2    9    8   -0.000000   -0.000990
   -2   -1    2   10    8    0.010408   -0.000000
   -2   -1    2   11    8    0.001194    0.000000
   -2   -1    2   12    8    0.000000   -0.000472
   -2   -1    2   13    8   -0.000000   -0.000230
   -2   -1    2   14    8    0.018912    0.000000
   -2   -1    2   15    8    0.000000    0.000301
   -2   -1    2   16    8    0.014601    0.000000
   -2   -1    2   17    8   -0.000018    0.000000
   -2   -1    2   18    8    0.000000   -0.001634
   -2   -1    2    1    9    0.001294    0.000000
   -2   -1    2    2    9    0.000000    0.000591
   -2   -1    2    3    9    0.019289    0.000000
   -2   -1    2    4    9   -0.000000   -0.000475
   -2   -1    2    5    9    0.000000   -0.000110
   -2   -1    2    6    9   -0.001096    0.000000
   -2   -1    2    7    9   -0.010408    0.000000
   -2   -1    2    8    9   -0.000000   -0.000990
   -2   -1    2    9    9   -0.008515    0.000000
   -2   -1    2   10    9   -0.000000    0.000000
   -2   -1    2   11    9    0.000000    0.000063
   -2   -1    2   12    9    0.000108    0.000000
   -2   -1    2   13    9    0.002111    0.000000
   -2   -1    2   14    9    0.000000    0.000460
   -2   -1    2   15    9   -0.003509   -0.000000
   -2   -1    2   16    9   -0.000000   -0.000252
   -2   -1    2   17    9    0.000000   -0.000002
   -2   -1    2   18    9    0.000232   -0.000000
   -2   -1    2    1   10    0.000000    0.000591
   -2   -1    2    2   10    0.001294   -0.000000
   -2   -1    2    3   10    0.000000   -0.000475
   -2   -1    2    4   10    0.019289   -0.000000
   -2   -1    2    5   10    0.001096    0.000000
   -2   -1    2    6   10   -0.000000    0.000110
   -2   -1    2    7   10    0.000000   -0.000990
   -2   -1    2    8   10   -0.010408    0.000000
   -2   -1    2    9   10    0.000000   -0.000000
   -2   -1    2   10   10   -0.008515    0.000000
   -2   -1    2   11   10   -0.000108    0.000000
   -2   -1    2   12   10   -0.000000   -0.000063
   -2   -1    2   13   10   -0.000000    0.000460
   -2   -1    2   14   10    0.002111    0.000000
   -2   -1    2   15   10    0.000000   -0.000252
   -2   -1    2   16   10   -0.003509    0.000000
   -2   -1    2   17   10   -0.000232    0.000000
   -2   -1    2   18   10   -0.000000    0.000002
   -2   -1    2    1   11    0.000000   -0.000640
   -2   -1    2    2   11    0.000373    0.000000
   -2   -1    2    3   11    0.000000    0.000024
   -2   -1    2    4   11    0.001690   -0.000000
   -2   -1    2    5   11   -0.011862    0.000000
   -2   -1    2    6   11   -0.000000    0.001008
   -2   -1    2    7   11   -0.000000    0.000472
   -2   -1    2    8   11   -0.001194    0.000000
   -2   -1    2    9   11   -0.000000   -0.000063
   -2   -1    2   10   11   -0.000108    0.000000
   -2   -1    2   11   11    0.008991    0.000000
   -2   -1    2   12   11   -0.000000    0.000000
   -2   -1    2   13   11    0.000000    0.000010
   -2   -1    2   14   11    0.000403    0.000000
   -2   -1    2   15   11    0.000000    0.000270
   -2   -1    2   16   11    0.000021    0.000000
   -2   -1    2   17   11   -0.008252    0.000000
   -2   -1    2   18   11   -0.000000   -0.000177
   -2   -1    2    1   12   -0.000373   -0.000000
   -2   -1    2    2   12    0.000000    0.000640
   -2   -1    2    3   12   -0.001690   -0.000000
   -2   -1    2    4   12    0.000000   -0.000024
   -2   -1    2    5   12    0.000000    0.001009
   -2   -1    2    6   12   -0.011862   -0.000000
   -2   -1    2    7   12    0.001194   -0.000000
   -2   -1    2    8   12   -0.000000   -0.000472
   -2   -1    2    9   12    0.000108    0.000000
   -2   -1    2   10   12    0.000000    0.000063
   -2   -1    2   11   12   -0.000000    0.000000
   -2   -1    2   12   12    0.008991    0.000000
   -2   -1    2   13   12   -0.000403    0.000000
   -2   -1    2   14   12   -0.000000   -0.000010
   -2   -1    2   15   12   -0.000021   -0.000000
   -2   -1    2   16   12    0.000000   -0.000270
   -2   -1    2   17   12   -0.000000   -0.000177
   -2   -1    2   18   12   -0.008252   -0.000000
   -2   -1    2    1   13    0.009736    0.000000
   -2   -1    2    2   13    0.000000   -0.000011
   -2   -1    2    3   13   -0.018836    0.000000
   -2   -1    2    4   13   -0.000000    0.000284
   -2   -1    2    5   13   -0.000000    0.001736
   -2   -1    2    6   13    0.001754    0.000000
   -2   -1    2    7   13   -0.018912    0.000000
   -2   -1    2    8   13    0.000000   -0.000230
   -2   -1    2    9   13    0.002111    0.000000
   -2   -1    2   10   13    0.000000   -0.000460
   -2   -1    2   11   13   -0.000000   -0.000010
   -2   -1    2   12   13   -0.000403   -0.000000
   -2   -1    2   13   13   -0.012428   -0.000000
   -2   -1    2   14   13    0.000000   -0.000000
   -2   -1    2   15   13   -0.003572    0.000000
   -2   -1    2   16   13    0.000000   -0.000280
   -2   -1    2   17   13    0.000000   -0.000403
   -2   -1    2   18   13   -0.000012   -0.000000
   -2   -1    2    1   14   -0.000000   -0.000011
   -2   -1    2    2   14    0.009736    0.000000
   -2   -1    2    3   14    0.000000    0.000284
   -2   -1    2    4   14   -0.018836    0.000000
   -2   -1    2    5   14   -0.001754    0.000000
   -2   -1    2    6   14    0.000000   -0.001736
   -2   -1    2    7   14    0.000000   -0.000230
   -2   -1    2    8   14   -0.018912   -0.000000
   -2   -1    2    9   14   -0.000000   -0.000460
   -2   -1    2   10   14    0.002111    0.000000
   -2   -1    2   11   14    0.000403   -0.000000
   -2   -1    2   12   14   -0.000000    0.000010
   -2   -1    2   13   14   -0.000000    0.000000
   -2   -1    2   14   14   -0.012428   -0.000000
   -2   -1    2   15   14   -0.000000   -0.000280
   -2   -1    2   16   14   -0.003572   -0.000000
   -2   -1    2   17   14    0.000012   -0.000000
   -2   -1    2   18   14   -0.000000    0.000403
   -2   -1    2    1   15   -0.005686   -0.000000
   -2   -1    2    2   15    0.000000    0.000288
   -2   -1    2    3   15    0.003703    0.000000
   -2   -1    2    4   15    0.000000   -0.001233
   -2   -1    2    5   15   -0.000000    0.001451
   -2   -1    2    6   15    0.000831   -0.000000
   -2   -1    2    7   15   -0.014601   -0.000000
   -2   -1    2    8   15    0.000000    0.000301
   -2   -1    2    9   15   -0.003509    0.000000
   -2   -1    2   10   15   -0.000000    0.000252
   -2   -1    2   11   15   -0.000000   -0.000270
   -2   -1    2   12   15   -0.000021   -0.000000
   -2   -1    2   13   15   -0.003572    0.000000
   -2   -1    2   14   15    0.000000    0.000280
   -2   -1    2   15   15   -0.002848   -0.000000
   -2   -1    2   16   15    0.000000    0.000000
   -2   -1    2   17   15    0.000000   -0.000112
   -2   -1    2   18   15   -0.000175    0.000000
   -2   -1    2    1   16    0.000000    0.000288
   -2   -1    2    2   16   -0.005686    0.000000
   -2   -1    2    3   16    0.000000   -0.001233
   -2   -1    2    4   16    0.003703   -0.000000
   -2   -1    2    5   16   -0.000831    0.000000
   -2   -1    2    6   16    0.000000   -0.001451
   -2   -1    2    7   16    0.000000    0.000301
   -2   -1    2    8   16   -0.014601   -0.000000
   -2   -1    2    9   16   -0.000000    0.000252
   -2   -1    2   10   16   -0.003509   -0.000000
   -2   -1    2   11   16    0.000021   -0.000000
   -2   -1    2   12   16   -0.000000    0.000270
   -2   -1    2   13   16   -0.000000    0.000280
   -2   -1    2   14   16   -0.003572    0.000000
   -2   -1    2   15   16    0.000000    0.000000
   -2   -1    2   16   16   -0.002848   -0.000000
   -2   -1    2   17   16    0.000175   -0.000000
   -2   -1    2   18   16   -0.000000    0.000112
   -2   -1    2    1   17    0.000000    0.000398
   -2   -1    2    2   17   -0.000638   -0.000000
   -2   -1    2    3   17    0.000000   -0.001202
   -2   -1    2    4   17    0.000478   -0.000000
   -2   -1    2    5   17   -0.011874   -0.000000
   -2   -1    2    6   17   -0.000000   -0.001011
   -2   -1    2    7   17    0.000000    0.001634
   -2   -1    2    8   17    0.000018    0.000000
   -2   -1    2    9   17   -0.000000    0.000002
   -2   -1    2   10   17   -0.000232   -0.000000
   -2   -1    2   11   17   -0.008252    0.000000
   -2   -1    2   12   17   -0.000000    0.000177
   -2   -1    2   13   17   -0.000000    0.000403
   -2   -1    2   14   17    0.000012    0.000000
   -2   -1    2   15   17   -0.000000    0.000112
   -2   -1    2   16   17    0.000175    0.000000
   -2   -1    2   17   17    0.008712   -0.000000
   -2   -1    2   18   17    0.000000    0.000000
   -2   -1    2    1   18    0.000638   -0.000000
   -2   -1    2    2   18    0.000000   -0.000398
   -2   -1    2    3   18   -0.000478   -0.000000
   -2   -1    2    4   18    0.000000    0.001202
   -2   -1    2    5   18    0.000000   -0.001011
   -2   -1    2    6   18   -0.011874    0.000000
   -2   -1    2    7   18   -0.000018   -0.000000
   -2   -1    2    8   18    0.000000   -0.001634
   -2   -1    2    9   18    0.000232   -0.000000
   -2   -1    2   10   18   -0.000000   -0.000002
   -2   -1    2   11   18   -0.000000    0.000177
   -2   -1    2   12   18   -0.008252   -0.000000
   -2   -1    2   13   18   -0.000012   -0.000000
   -2   -1    2   14   18   -0.000000   -0.000403
   -2   -1    2   15   18   -0.000175    0.000000
   -2   -1    2   16   18   -0.000000   -0.000112
   -2   -1    2   17   18   -0.000000   -0.000000
   -2   -1    2   18   18    0.008712    0.000000
   -2    0    0    1    1   -0.121419    0.000000
   -2    0    0    2    1    0.000000   -0.000000
   -2    0    0    3    1    0.000000    0.000000
   -2    0    0    4    1    0.000000    0.000000
   -2    0    0    5    1    0.000000   -0.000000
   -2    0    0    6    1   -0.000000   -0.000000
   -2    0    0    7    1    0.000000   -0.000000
   -2    0    0    8    1    0.000000    0.000000
   -2    0    0    9    1   -0.004374   -0.000000
   -2    0    0   10    1    0.011094    0.000000
   -2    0    0   11    1    0.000702   -0.000000
   -2    0    0   12    1    0.000064    0.000000
   -2    0    0   13    1   -0.000000    0.006059
   -2    0    0   14    1    0.000000    0.009909
   -2    0    0   15    1   -0.009998   -0.000000
   -2    0    0   16    1   -0.006314   -0.000000
   -2    0    0   17    1    0.000000   -0.009841
   -2    0    0   18    1    0.000000   -0.006050
   -2    0    0    1    2    0.000000    0.000000
   -2    0    0    2    2   -0.121419    0.000000
   -2    0    0    3    2    0.000000    0.000000
   -2    0    0    4    2   -0.000000    0.000000
   -2    0    0    5    2    0.000000   -0.000000
   -2    0    0    6    2   -0.000000   -0.000000
   -2    0    0    7    2   -0.000000   -0.000000
   -2    0    0    8    2   -0.000000    0.000000
   -2    0    0    9    2   -0.011094    0.000000
   -2    0    0   10    2   -0.004374    0.000000
   -2    0    0   11    2   -0.000064   -0.000000
   -2    0    0   12    2    0.000702   -0.000000
   -2    0    0   13    2    0.000000    0.009909
   -2    0    0   14    2    0.000000   -0.006059
   -2    0    0   15    2    0.006314    0.000000
   -2    0    0   16    2   -0.009998    0.000000
   -2    0    0   17    2    0.000000   -0.006050
   -2    0    0   18    2   -0.000000    0.009841
   -2    0    0    1    3    0.000000   -0.000000
   -2    0    0    2    3    0.000000   -0.000000
   -2    0    0    3    3    0.175859    0.000000
   -2    0    0    4    3    0.000000    0.000000
   -2    0    0    5    3   -0.271770   -0.000000
   -2    0    0    6    3   -0.003200    0.000000
   -2    0    0    7    3   -0.000000   -0.007892
   -2    0    0    8    3    0.000000   -0.021892
   -2    0    0    9    3   -0.000000   -0.000000
   -2    0    0   10    3   -0.000000   -0.000000
   -2    0    0   11    3    0.000000    0.000000
   -2    0    0   12    3   -0.000000   -0.000000
   -2    0    0   13    3    0.000000    0.000000
   -2    0    0   14    3    0.000000    0.000000
   -2    0    0   15    3    0.000000   -0.000000
   -2    0    0   16    3   -0.000000   -0.000000
   -2    0    0   17    3   -0.000000    0.000000
   -2    0    0   18    3   -0.000000    0.000000
   -2    0    0    1    4    0.000000   -0.000000
   -2    0    0    2    4   -0.000000   -0.000000
   -2    0    0    3    4    0.000000   -0.000000
   -2    0    0    4    4    0.175859    0.000000
   -2    0    0    5    4    0.003200    0.000000
   -2    0    0    6    4   -0.271770   -0.000000
   -2    0    0    7    4   -0.000000   -0.021892
   -2    0    0    8    4    0.000000    0.007892
   -2    0    0    9    4   -0.000000   -0.000000
   -2    0    0   10    4    0.000000   -0.000000
   -2    0    0   11    4    0.000000   -0.000000
   -2    0    0   12    4    0.000000    0.000000
   -2    0    0   13    4   -0.000000   -0.000000
   -2    0    0   14    4    0.000000   -0.000000
   -2    0    0   15    4   -0.000000   -0.000000
   -2    0    0   16    4    0.000000   -0.000000
   -2    0    0   17    4    0.000000   -0.000000
   -2    0    0   18    4   -0.000000   -0.000000
   -2    0    0    1    5    0.000000    0.000000
   -2    0    0    2    5    0.000000    0.000000
   -2    0    0    3    5   -0.271770    0.000000
   -2    0    0    4    5    0.003200   -0.000000
   -2    0    0    5    5    0.173695    0.000000
   -2    0    0    6    5   -0.000000    0.000000
   -2    0    0    7    5   -0.000000    0.021897
   -2    0    0    8    5   -0.000000    0.007903
   -2    0    0    9    5   -0.000000   -0.000000
   -2    0    0   10    5    0.000000   -0.000000
   -2    0    0   11    5   -0.000000   -0.000000
   -2    0    0   12    5   -0.000000   -0.000000
   -2    0    0   13    5   -0.000000   -0.000000
   -2    0    0   14    5    0.000000   -0.000000
   -2    0    0   15    5   -0.000000   -0.000000
   -2    0    0   16    5   -0.000000    0.000000
   -2    0    0   17    5   -0.000000    0.000000
   -2    0    0   18    5   -0.000000   -0.000000
   -2    0    0    1    6   -0.000000    0.000000
   -2    0    0    2    6   -0.000000    0.000000
   -2    0    0    3    6   -0.003200   -0.000000
   -2    0    0    4    6   -0.271770    0.000000
   -2    0    0    5    6   -0.000000   -0.000000
   -2    0    0    6    6    0.173695    0.000000
   -2    0    0    7    6    0.000000    0.007903
   -2    0    0    8    6    0.000000   -0.021897
   -2    0    0    9    6   -0.000000    0.000000
   -2    0    0   10    6   -0.000000    0.000000
   -2    0    0   11    6    0.000000    0.000000
   -2    0    0   12    6   -0.000000    0.000000
   -2    0    0   13    6   -0.000000   -0.000000
   -2    0    0   14    6    0.000000   -0.000000
   -2    0    0   15    6    0.000000    0.000000
   -2    0    0   16    6    0.000000   -0.000000
   -2    0    0   17    6    0.000000    0.000000
   -2    0    0   18    6   -0.000000   -0.000000
   -2    0    0    1    7    0.000000    0.000000
   -2    0    0    2    7   -0.000000    0.000000
   -2    0    0    3    7   -0.000000    0.007892
   -2    0    0    4    7   -0.000000    0.021892
   -2    0    0    5    7   -0.000000   -0.021897
   -2    0    0    6    7    0.000000   -0.007903
   -2    0    0    7    7    0.039284    0.000000
   -2    0    0    8    7   -0.000000   -0.000000
   -2    0    0    9    7   -0.000000   -0.000000
   -2    0    0   10    7   -0.000000   -0.000000
   -2    0    0   11    7    0.000000    0.000000
   -2    0    0   12    7    0.000000    0.000000
   -2    0    0   13    7   -0.000000    0.000000
   -2    0    0   14    7   -0.000000   -0.000000
   -2    0    0   15    7   -0.000000   -0.000000
   -2    0    0   16    7   -0.000000    0.000000
   -2    0    0   17    7    0.000000    0.000000
   -2    0    0   18    7    0.000000   -0.000000
   -2    0    0    1    8    0.000000   -0.000000
   -2    0    0    2    8   -0.000000   -0.000000
   -2    0    0    3    8    0.000000    0.021892
   -2    0    0    4    8    0.000000   -0.007892
   -2    0    0    5    8   -0.000000   -0.007903
   -2    0    0    6    8    0.000000    0.021897
   -2    0    0    7    8   -0.000000    0.000000
   -2    0    0    8    8    0.039284    0.000000
   -2    0    0    9    8   -0.000000   -0.000000
   -2    0    0   10    8   -0.000000   -0.000000
   -2    0    0   11    8   -0.000000    0.000000
   -2    0    0   12    8   -0.000000    0.000000
   -2    0    0   13    8    0.000000    0.000000
   -2    0    0   14    8    0.000000    0.000000
   -2    0    0   15    8    0.000000    0.000000
   -2    0    0   16    8    0.000000    0.000000
   -2    0    0   17    8   -0.000000    0.000000
   -2    0    0   18    8    0.000000   -0.000000
   -2    0    0    1    9   -0.004374    0.000000
   -2    0    0    2    9   -0.011094   -0.000000
   -2    0    0    3    9   -0.000000    0.000000
   -2    0    0    4    9   -0.000000    0.000000
   -2    0    0    5    9   -0.000000    0.000000
   -2    0    0    6    9   -0.000000   -0.000000
   -2    0    0    7    9   -0.000000    0.000000
   -2    0    0    8    9   -0.000000    0.000000
   -2    0    0    9    9    0.023321    0.000000
   -2    0    0   10    9   -0.000000   -0.000000
   -2    0    0   11    9    0.004938    0.000000
   -2    0    0   12    9    0.003247    0.000000
   -2    0    0   13    9    0.000000    0.001370
   -2    0    0   14    9   -0.000000    0.000292
   -2    0    0   15    9   -0.020047   -0.000000
   -2    0    0   16    9   -0.003134   -0.000000
   -2    0    0   17    9    0.000000   -0.001338
   -2    0    0   18    9    0.000000    0.000378
   -2    0    0    1   10    0.011094   -0.000000
   -2    0    0    2   10   -0.004374   -0.000000
   -2    0    0    3   10   -0.000000    0.000000
   -2    0    0    4   10    0.000000    0.000000
   -2    0    0    5   10    0.000000    0.000000
   -2    0    0    6   10   -0.000000   -0.000000
   -2    0    0    7   10   -0.000000    0.000000
   -2    0    0    8   10   -0.000000    0.000000
   -2    0    0    9   10   -0.000000    0.000000
   -2    0    0   10   10    0.023321    0.000000
   -2    0    0   11   10   -0.003247   -0.000000
   -2    0    0   12   10    0.004938    0.000000
   -2    0    0   13   10   -0.000000    0.000292
   -2    0    0   14   10    0.000000   -0.001370
   -2    0    0   15   10    0.003134    0.000000
   -2    0    0   16   10   -0.020047   -0.000000
   -2    0    0   17   10   -0.000000    0.000378
   -2    0    0   18   10    0.000000    0.001338
   -2    0    0    1   11    0.000702    0.000000
   -2    0    0    2   11   -0.000064    0.000000
   -2    0    0    3   11    0.000000   -0.000000
   -2    0    0    4   11    0.000000    0.000000
   -2    0    0    5   11   -0.000000    0.000000
   -2    0    0    6   11    0.000000   -0.000000
   -2    0    0    7   11    0.000000   -0.000000
   -2    0    0    8   11   -0.000000   -0.000000
   -2    0    0    9   11    0.004938   -0.000000
   -2    0    0   10   11   -0.003247    0.000000
   -2    0    0   11   11   -0.007014    0.000000
   -2    0    0   12   11    0.000000   -0.000000
   -2    0    0   13   11    0.000000   -0.001997
   -2    0    0   14   11    0.000000   -0.003518
   -2    0    0   15   11    0.008534    0.000000
   -2    0    0   16   11    0.001651   -0.000000
   -2    0    0   17   11   -0.000000    0.003466
   -2    0    0   18   11    0.000000    0.001995
   -2    0    0    1   12    0.000064   -0.000000
   -2    0    0    2   12    0.000702    0.000000
   -2    0    0    3   12   -0.000000    0.000000
   -2    0    0    4   12    0.000000   -0.000000
   -2    0    0    5   12   -0.000000    0.000000
   -2    0    0    6   12   -0.000000   -0.000000
   -2    0    0    7   12    0.000000   -0.000000
   -2    0    0    8   12   -0.000000   -0.000000
   -2    0    0    9   12    0.003247   -0.000000
   -2    0    0   10   12    0.004938   -0.000000
   -2    0    0   11   12    0.000000    0.000000
   -2    0    0   12   12   -0.007014    0.000000
   -2    0    0   13   12   -0.000000   -0.003518
   -2    0    0   14   12    0.000000    0.001997
   -2    0    0   15   12   -0.001651   -0.000000
   -2    0    0   16   12    0.008534    0.000000
   -2    0    0   17   12    0.000000    0.001995
   -2    0    0   18   12   -0.000000   -0.003466
   -2    0    0    1   13   -0.000000   -0.006059
   -2    0    0    2   13    0.000000   -0.009909
   -2    0    0    3   13    0.000000   -0.000000
   -2    0    0    4   13   -0.000000    0.000000
   -2    0    0    5   13   -0.000000    0.000000
   -2    0    0    6   13   -0.000000    0.000000
   -2    0    0    7   13   -0.000000   -0.000000
   -2    0    0    8   13    0.000000   -0.000000
   -2    0    0    9   13    0.000000   -0.001370
   -2    0    0   10   13   -0.000000   -0.000292
   -2    0    0   11   13    0.000000    0.001997
   -2    0    0   12   13   -0.000000    0.003518
   -2    0    0   13   13    0.014803    0.000000
   -2    0    0   14   13    0.000000    0.000000
   -2    0    0   15   13   -0.000000   -0.000475
   -2    0    0   16   13    0.000000   -0.002180
   -2    0    0   17   13   -0.027934    0.000000
   -2    0    0   18   13   -0.000649   -0.000000
   -2    0    0    1   14    0.000000   -0.009909
   -2    0    0    2   14    0.000000    0.006059
   -2    0    0    3   14    0.000000   -0.000000
   -2    0    0    4   14    0.000000    0.000000
   -2    0    0    5   14    0.000000    0.000000
   -2    0    0    6   14    0.000000    0.000000
   -2    0    0    7   14   -0.000000    0.000000
   -2    0    0    8   14    0.000000   -0.000000
   -2    0    0    9   14   -0.000000   -0.000292
   -2    0    0   10   14    0.000000    0.001370
   -2    0    0   11   14    0.000000    0.003518
   -2    0    0   12   14    0.000000   -0.001997
   -2    0    0   13   14    0.000000   -0.000000
   -2    0    0   14   14    0.014803    0.000000
   -2    0    0   15   14    0.000000   -0.002180
   -2    0    0   16   14   -0.000000    0.000475
   -2    0    0   17   14    0.000649    0.000000
   -2    0    0   18   14   -0.027934   -0.000000
   -2    0    0    1   15   -0.009998    0.000000
   -2    0    0    2   15    0.006314   -0.000000
   -2    0    0    3   15    0.000000    0.000000
   -2    0    0    4   15   -0.000000    0.000000
   -2    0    0    5   15   -0.000000    0.000000
   -2    0    0    6   15    0.000000   -0.000000
   -2    0    0    7   15   -0.000000    0.000000
   -2    0    0    8   15    0.000000   -0.000000
   -2    0    0    9   15   -0.020047    0.000000
   -2    0    0   10   15    0.003134   -0.000000
   -2    0    0   11   15    0.008534   -0.000000
   -2    0    0   12   15   -0.001651    0.000000
   -2    0    0   13   15   -0.000000    0.000475
   -2    0    0   14   15    0.000000    0.002180
   -2    0    0   15   15    0.002577    0.000000
   -2    0    0   16   15   -0.000000    0.000000
   -2    0    0   17   15    0.000000   -0.001439
   -2    0    0   18   15    0.000000   -0.001476
   -2    0    0    1   16   -0.006314    0.000000
   -2    0    0    2   16   -0.009998   -0.000000
   -2    0    0    3   16   -0.000000    0.000000
   -2    0    0    4   16    0.000000    0.000000
   -2    0    0    5   16   -0.000000   -0.000000
   -2    0    0    6   16    0.000000    0.000000
   -2    0    0    7   16   -0.000000   -0.000000
   -2    0    0    8   16    0.000000   -0.000000
   -2    0    0    9   16   -0.003134    0.000000
   -2    0    0   10   16   -0.020047    0.000000
   -2    0    0   11   16    0.001651    0.000000
   -2    0    0   12   16    0.008534   -0.000000
   -2    0    0   13   16    0.000000    0.002180
   -2    0    0   14   16   -0.000000   -0.000475
   -2    0    0   15   16   -0.000000   -0.000000
   -2    0    0   16   16    0.002577    0.000000
   -2    0    0   17   16   -0.000000   -0.001476
   -2    0    0   18   16    0.000000    0.001439
   -2    0    0    1   17    0.000000    0.009841
   -2    0    0    2   17    0.000000    0.006050
   -2    0    0    3   17   -0.000000   -0.000000
   -2    0    0    4   17    0.000000    0.000000
   -2    0    0    5   17   -0.000000   -0.000000
[...]
    2    2   -2   16   14    0.000000    0.000000
    2    2   -2   17   14    0.000327    0.000000
    2    2   -2   18   14   -0.000000   -0.000000
    2    2   -2    1   15   -0.000000   -0.000000
    2    2   -2    2   15    0.000000   -0.000000
    2    2   -2    3   15    0.000000    0.000000
    2    2   -2    4   15   -0.000000   -0.000000
    2    2   -2    5   15   -0.000000   -0.000000
    2    2   -2    6   15    0.000000   -0.000000
    2    2   -2    7   15    0.000000   -0.000000
    2    2   -2    8   15    0.000000   -0.000000
    2    2   -2    9   15   -0.000000   -0.000000
    2    2   -2   10   15   -0.000000    0.000000
    2    2   -2   11   15   -0.000000   -0.000000
    2    2   -2   12   15    0.000429    0.000000
    2    2   -2   13   15    0.000000   -0.000000
    2    2   -2   14   15   -0.000000   -0.000429
    2    2   -2   15   15   -0.007218   -0.000000
    2    2   -2   16   15   -0.000000    0.000000
    2    2   -2   17   15    0.000000    0.000933
    2    2   -2   18   15    0.000000    0.000000
    2    2   -2    1   16    0.000000   -0.000000
    2    2   -2    2   16    0.000000    0.000000
    2    2   -2    3   16    0.000000    0.000000
    2    2   -2    4   16   -0.000000    0.000000
    2    2   -2    5   16    0.000000    0.000000
    2    2   -2    6   16   -0.000000    0.000000
    2    2   -2    7   16    0.000000   -0.000000
    2    2   -2    8   16    0.000000   -0.000000
    2    2   -2    9   16   -0.000000   -0.000000
    2    2   -2   10   16    0.000000    0.000000
    2    2   -2   11   16   -0.000429   -0.000000
    2    2   -2   12   16   -0.000000    0.000000
    2    2   -2   13   16    0.000000   -0.000429
    2    2   -2   14   16    0.000000   -0.000000
    2    2   -2   15   16   -0.000000   -0.000000
    2    2   -2   16   16   -0.007218    0.000000
    2    2   -2   17   16   -0.000000    0.000000
    2    2   -2   18   16    0.000000   -0.000933
    2    2   -2    1   17   -0.000000   -0.000000
    2    2   -2    2   17   -0.000000    0.000000
    2    2   -2    3   17   -0.000000   -0.000000
    2    2   -2    4   17    0.000000    0.000000
    2    2   -2    5   17    0.000000   -0.000000
    2    2   -2    6   17   -0.000000   -0.000000
    2    2   -2    7   17    0.000000   -0.000000
    2    2   -2    8   17   -0.000000   -0.000000
    2    2   -2    9   17    0.000000   -0.000000
    2    2   -2   10   17   -0.000000   -0.000000
    2    2   -2   11   17   -0.000000   -0.000000
    2    2   -2   12   17    0.000000    0.000327
    2    2   -2   13   17   -0.000000    0.000000
    2    2   -2   14   17    0.000327   -0.000000
    2    2   -2   15   17    0.000000   -0.000933
    2    2   -2   16   17   -0.000000   -0.000000
    2    2   -2   17   17    0.017044   -0.000000
    2    2   -2   18   17   -0.000000    0.000000
    2    2   -2    1   18   -0.000000   -0.000000
    2    2   -2    2   18    0.000000   -0.000000
    2    2   -2    3   18    0.000000   -0.000000
    2    2   -2    4   18   -0.000000   -0.000000
    2    2   -2    5   18   -0.000000    0.000000
    2    2   -2    6   18   -0.000000    0.000000
    2    2   -2    7   18   -0.000000   -0.000000
    2    2   -2    8   18    0.000000    0.000000
    2    2   -2    9   18    0.000000   -0.000000
    2    2   -2   10   18    0.000000    0.000000
    2    2   -2   11   18    0.000000    0.000327
    2    2   -2   12   18   -0.000000   -0.000000
    2    2   -2   13   18   -0.000327   -0.000000
    2    2   -2   14   18   -0.000000    0.000000
    2    2   -2   15   18    0.000000   -0.000000
    2    2   -2   16   18    0.000000    0.000933
    2    2   -2   17   18   -0.000000   -0.000000
    2    2   -2   18   18    0.017044    0.000000
    3   -1   -1    1    1   -0.214881   -0.000000
    3   -1   -1    2    1   -0.000000   -0.000000
    3   -1   -1    3    1   -0.000000    0.000000
    3   -1   -1    4    1   -0.000000   -0.000000
    3   -1   -1    5    1    0.000000   -0.000000
    3   -1   -1    6    1    0.000000   -0.000024
    3   -1   -1    7    1    0.000000   -0.000000
    3   -1   -1    8    1   -0.000024   -0.000000
    3   -1   -1    9    1    0.000910   -0.000000
    3   -1   -1   10    1   -0.000000   -0.000000
    3   -1   -1   11    1   -0.000000   -0.000000
    3   -1   -1   12    1   -0.000044    0.000000
    3   -1   -1   13    1   -0.000000    0.000000
    3   -1   -1   14    1    0.000000   -0.000044
    3   -1   -1   15    1   -0.000000    0.000000
    3   -1   -1   16    1   -0.000000   -0.000000
    3   -1   -1   17    1    0.000000    0.000000
    3   -1   -1   18    1    0.000000    0.000000
    3   -1   -1    1    2    0.000000   -0.000000
    3   -1   -1    2    2   -0.214881   -0.000000
    3   -1   -1    3    2    0.000000   -0.000000
    3   -1   -1    4    2    0.000000   -0.000000
    3   -1   -1    5    2    0.000000   -0.000024
    3   -1   -1    6    2   -0.000000   -0.000000
    3   -1   -1    7    2    0.000024   -0.000000
    3   -1   -1    8    2   -0.000000    0.000000
    3   -1   -1    9    2    0.000000   -0.000000
    3   -1   -1   10    2    0.000910   -0.000000
    3   -1   -1   11    2    0.000044    0.000000
    3   -1   -1   12    2    0.000000   -0.000000
    3   -1   -1   13    2   -0.000000   -0.000044
    3   -1   -1   14    2    0.000000    0.000000
    3   -1   -1   15    2    0.000000   -0.000000
    3   -1   -1   16    2   -0.000000   -0.000000
    3   -1   -1   17    2    0.000000   -0.000000
    3   -1   -1   18    2    0.000000    0.000000
    3   -1   -1    1    3   -0.000000   -0.000000
    3   -1   -1    2    3    0.000000   -0.000000
    3   -1   -1    3    3    0.153124   -0.000000
    3   -1   -1    4    3   -0.000000   -0.000000
    3   -1   -1    5    3    0.000000   -0.000000
    3   -1   -1    6    3   -0.006572    0.000000
    3   -1   -1    7    3    0.000000    0.000000
    3   -1   -1    8    3   -0.000000   -0.006572
    3   -1   -1    9    3   -0.000000   -0.000000
    3   -1   -1   10    3   -0.000000   -0.000000
    3   -1   -1   11    3   -0.000000   -0.000000
    3   -1   -1   12    3   -0.000000   -0.000059
    3   -1   -1   13    3    0.000000   -0.000000
    3   -1   -1   14    3   -0.000059   -0.000000
    3   -1   -1   15    3   -0.000000   -0.005262
    3   -1   -1   16    3   -0.000000    0.000000
    3   -1   -1   17    3    0.024864   -0.000000
    3   -1   -1   18    3    0.000000    0.000000
    3   -1   -1    1    4   -0.000000    0.000000
    3   -1   -1    2    4    0.000000    0.000000
    3   -1   -1    3    4    0.000000   -0.000000
    3   -1   -1    4    4    0.153124   -0.000000
    3   -1   -1    5    4    0.006572    0.000000
    3   -1   -1    6    4    0.000000   -0.000000
    3   -1   -1    7    4    0.000000   -0.006572
    3   -1   -1    8    4   -0.000000    0.000000
    3   -1   -1    9    4   -0.000000   -0.000000
    3   -1   -1   10    4    0.000000   -0.000000
    3   -1   -1   11    4    0.000000   -0.000059
    3   -1   -1   12    4    0.000000    0.000000
    3   -1   -1   13    4    0.000059   -0.000000
    3   -1   -1   14    4   -0.000000    0.000000
    3   -1   -1   15    4   -0.000000   -0.000000
    3   -1   -1   16    4   -0.000000    0.005262
    3   -1   -1   17    4    0.000000   -0.000000
    3   -1   -1   18    4    0.024864    0.000000
    3   -1   -1    1    5   -0.000000    0.000000
    3   -1   -1    2    5   -0.000000   -0.000024
    3   -1   -1    3    5   -0.000000   -0.000000
    3   -1   -1    4    5    0.006572    0.000000
    3   -1   -1    5    5    0.151009   -0.000000
    3   -1   -1    6    5    0.000000    0.000000
    3   -1   -1    7    5    0.000000    0.006615
    3   -1   -1    8    5   -0.000000    0.000000
    3   -1   -1    9    5    0.000000   -0.000000
    3   -1   -1   10    5    0.000000    0.004613
    3   -1   -1   11    5   -0.000000    0.000033
    3   -1   -1   12    5   -0.000000    0.000000
    3   -1   -1   13    5    0.026428   -0.000000
    3   -1   -1   14    5    0.000000   -0.000000
    3   -1   -1   15    5   -0.000000   -0.000000
    3   -1   -1   16    5   -0.000000    0.002683
    3   -1   -1   17    5    0.000000   -0.000000
    3   -1   -1   18    5    0.000061   -0.000000
    3   -1   -1    1    6   -0.000000   -0.000024
    3   -1   -1    2    6   -0.000000    0.000000
    3   -1   -1    3    6   -0.006572   -0.000000
    3   -1   -1    4    6   -0.000000   -0.000000
    3   -1   -1    5    6   -0.000000   -0.000000
    3   -1   -1    6    6    0.151009    0.000000
    3   -1   -1    7    6    0.000000    0.000000
    3   -1   -1    8    6   -0.000000   -0.006615
    3   -1   -1    9    6    0.000000    0.004613
    3   -1   -1   10    6   -0.000000   -0.000000
    3   -1   -1   11    6   -0.000000   -0.000000
    3   -1   -1   12    6   -0.000000   -0.000033
    3   -1   -1   13    6   -0.000000    0.000000
    3   -1   -1   14    6    0.026428    0.000000
    3   -1   -1   15    6   -0.000000    0.002683
    3   -1   -1   16    6   -0.000000   -0.000000
    3   -1   -1   17    6   -0.000061    0.000000
    3   -1   -1   18    6   -0.000000   -0.000000
    3   -1   -1    1    7   -0.000000    0.000000
    3   -1   -1    2    7   -0.000024    0.000000
    3   -1   -1    3    7    0.000000   -0.000000
    3   -1   -1    4    7    0.000000    0.006572
    3   -1   -1    5    7   -0.000000   -0.006615
    3   -1   -1    6    7    0.000000   -0.000000
    3   -1   -1    7    7    0.151009    0.000000
    3   -1   -1    8    7    0.000000    0.000000
    3   -1   -1    9    7    0.000000    0.000000
    3   -1   -1   10    7    0.004613   -0.000000
    3   -1   -1   11    7    0.026428    0.000000
    3   -1   -1   12    7    0.000000   -0.000000
    3   -1   -1   13    7   -0.000000   -0.000033
    3   -1   -1   14    7   -0.000000   -0.000000
    3   -1   -1   15    7   -0.000000    0.000000
    3   -1   -1   16    7   -0.002683    0.000000
    3   -1   -1   17    7    0.000000    0.000000
    3   -1   -1   18    7   -0.000000    0.000061
    3   -1   -1    1    8    0.000024   -0.000000
    3   -1   -1    2    8   -0.000000   -0.000000
    3   -1   -1    3    8    0.000000    0.006572
    3   -1   -1    4    8    0.000000   -0.000000
    3   -1   -1    5    8   -0.000000   -0.000000
    3   -1   -1    6    8    0.000000    0.006615
    3   -1   -1    7    8    0.000000    0.000000
    3   -1   -1    8    8    0.151009   -0.000000
    3   -1   -1    9    8   -0.004613    0.000000
    3   -1   -1   10    8    0.000000   -0.000000
    3   -1   -1   11    8   -0.000000   -0.000000
    3   -1   -1   12    8    0.026428   -0.000000
    3   -1   -1   13    8    0.000000   -0.000000
    3   -1   -1   14    8   -0.000000    0.000033
    3   -1   -1   15    8    0.002683    0.000000
    3   -1   -1   16    8    0.000000   -0.000000
    3   -1   -1   17    8   -0.000000    0.000061
    3   -1   -1   18    8    0.000000    0.000000
    3   -1   -1    1    9    0.000910   -0.000000
    3   -1   -1    2    9    0.000000   -0.000000
    3   -1   -1    3    9    0.000000    0.000000
    3   -1   -1    4    9    0.000000    0.000000
    3   -1   -1    5    9   -0.000000    0.000000
    3   -1   -1    6    9   -0.000000    0.004613
    3   -1   -1    7    9   -0.000000   -0.000000
    3   -1   -1    8    9    0.004613   -0.000000
    3   -1   -1    9    9   -0.002379   -0.000000
    3   -1   -1   10    9   -0.000000    0.000000
    3   -1   -1   11    9    0.000000    0.000000
    3   -1   -1   12    9   -0.000456   -0.000000
    3   -1   -1   13    9    0.000000   -0.000000
    3   -1   -1   14    9    0.000000   -0.000456
    3   -1   -1   15    9    0.000000    0.000000
    3   -1   -1   16    9   -0.000000   -0.000000
    3   -1   -1   17    9    0.000000   -0.000000
    3   -1   -1   18    9   -0.000000    0.000000
    3   -1   -1    1   10    0.000000    0.000000
    3   -1   -1    2   10    0.000910   -0.000000
    3   -1   -1    3   10    0.000000    0.000000
    3   -1   -1    4   10    0.000000   -0.000000
    3   -1   -1    5   10   -0.000000    0.004613
    3   -1   -1    6   10   -0.000000    0.000000
    3   -1   -1    7   10   -0.004613   -0.000000
    3   -1   -1    8   10   -0.000000    0.000000
    3   -1   -1    9   10    0.000000    0.000000
    3   -1   -1   10   10   -0.002379   -0.000000
    3   -1   -1   11   10    0.000456   -0.000000
    3   -1   -1   12   10    0.000000   -0.000000
    3   -1   -1   13   10   -0.000000   -0.000456
    3   -1   -1   14   10   -0.000000    0.000000
    3   -1   -1   15   10   -0.000000    0.000000
    3   -1   -1   16   10   -0.000000   -0.000000
    3   -1   -1   17   10   -0.000000   -0.000000
    3   -1   -1   18   10   -0.000000   -0.000000
    3   -1   -1    1   11   -0.000000    0.000000
    3   -1   -1    2   11    0.000044    0.000000
    3   -1   -1    3   11   -0.000000    0.000000
    3   -1   -1    4   11    0.000000   -0.000059
    3   -1   -1    5   11   -0.000000    0.000033
    3   -1   -1    6   11   -0.000000   -0.000000
    3   -1   -1    7   11   -0.026428   -0.000000
    3   -1   -1    8   11   -0.000000    0.000000
    3   -1   -1    9   11    0.000000   -0.000000
    3   -1   -1   10   11    0.000456   -0.000000
    3   -1   -1   11   11   -0.006067   -0.000000
    3   -1   -1   12   11    0.000000   -0.000000
    3   -1   -1   13   11   -0.000000   -0.000486
    3   -1   -1   14   11   -0.000000   -0.000000
    3   -1   -1   15   11    0.000000   -0.000000
    3   -1   -1   16   11   -0.000278   -0.000000
    3   -1   -1   17   11   -0.000000   -0.000000
    3   -1   -1   18   11    0.000000    0.000484
    3   -1   -1    1   12   -0.000044    0.000000
    3   -1   -1    2   12    0.000000    0.000000
    3   -1   -1    3   12   -0.000000   -0.000059
    3   -1   -1    4   12    0.000000   -0.000000
    3   -1   -1    5   12   -0.000000    0.000000
    3   -1   -1    6   12   -0.000000   -0.000033
    3   -1   -1    7   12   -0.000000   -0.000000
    3   -1   -1    8   12   -0.026428   -0.000000
    3   -1   -1    9   12   -0.000456    0.000000
    3   -1   -1   10   12   -0.000000   -0.000000
    3   -1   -1   11   12   -0.000000    0.000000
    3   -1   -1   12   12   -0.006067   -0.000000
    3   -1   -1   13   12   -0.000000    0.000000
    3   -1   -1   14   12   -0.000000    0.000486
    3   -1   -1   15   12    0.000278   -0.000000
    3   -1   -1   16   12    0.000000    0.000000
    3   -1   -1   17   12    0.000000    0.000484
    3   -1   -1   18   12    0.000000   -0.000000
    3   -1   -1    1   13   -0.000000   -0.000000
    3   -1   -1    2   13   -0.000000    0.000044
    3   -1   -1    3   13    0.000000    0.000000
    3   -1   -1    4   13   -0.000059    0.000000
    3   -1   -1    5   13   -0.026428    0.000000
    3   -1   -1    6   13   -0.000000    0.000000
    3   -1   -1    7   13   -0.000000   -0.000033
    3   -1   -1    8   13    0.000000   -0.000000
    3   -1   -1    9   13   -0.000000   -0.000000
    3   -1   -1   10   13   -0.000000    0.000456
    3   -1   -1   11   13    0.000000    0.000486
    3   -1   -1   12   13   -0.000000   -0.000000
    3   -1   -1   13   13   -0.006067   -0.000000
    3   -1   -1   14   13   -0.000000    0.000000
    3   -1   -1   15   13    0.000000    0.000000
    3   -1   -1   16   13    0.000000    0.000278
    3   -1   -1   17   13    0.000000    0.000000
    3   -1   -1   18   13    0.000484   -0.000000
    3   -1   -1    1   14    0.000000    0.000044
    3   -1   -1    2   14   -0.000000   -0.000000
    3   -1   -1    3   14    0.000059    0.000000
    3   -1   -1    4   14   -0.000000    0.000000
    3   -1   -1    5   14   -0.000000    0.000000
    3   -1   -1    6   14   -0.026428   -0.000000
    3   -1   -1    7   14   -0.000000   -0.000000
    3   -1   -1    8   14   -0.000000    0.000033
    3   -1   -1    9   14   -0.000000    0.000456
    3   -1   -1   10   14   -0.000000   -0.000000
    3   -1   -1   11   14    0.000000   -0.000000
    3   -1   -1   12   14    0.000000   -0.000486
    3   -1   -1   13   14    0.000000    0.000000
    3   -1   -1   14   14   -0.006067   -0.000000
    3   -1   -1   15   14   -0.000000    0.000278
    3   -1   -1   16   14   -0.000000    0.000000
    3   -1   -1   17   14   -0.000484   -0.000000
    3   -1   -1   18   14    0.000000   -0.000000
    3   -1   -1    1   15    0.000000    0.000000
    3   -1   -1    2   15    0.000000    0.000000
    3   -1   -1    3   15    0.000000   -0.005262
    3   -1   -1    4   15    0.000000    0.000000
    3   -1   -1    5   15    0.000000   -0.000000
    3   -1   -1    6   15    0.000000    0.002683
    3   -1   -1    7   15   -0.000000   -0.000000
    3   -1   -1    8   15   -0.002683    0.000000
    3   -1   -1    9   15   -0.000000    0.000000
    3   -1   -1   10   15   -0.000000    0.000000
    3   -1   -1   11   15   -0.000000    0.000000
    3   -1   -1   12   15    0.000278    0.000000
    3   -1   -1   13   15    0.000000    0.000000
    3   -1   -1   14   15   -0.000000   -0.000278
    3   -1   -1   15   15    0.003150    0.000000
    3   -1   -1   16   15   -0.000000   -0.000000
    3   -1   -1   17   15   -0.000000    0.000524
    3   -1   -1   18   15    0.000000   -0.000000
    3   -1   -1    1   16   -0.000000   -0.000000
    3   -1   -1    2   16    0.000000    0.000000
    3   -1   -1    3   16   -0.000000    0.000000
    3   -1   -1    4   16   -0.000000    0.005262
    3   -1   -1    5   16    0.000000    0.002683
    3   -1   -1    6   16    0.000000   -0.000000
    3   -1   -1    7   16    0.002683   -0.000000
    3   -1   -1    8   16    0.000000   -0.000000
    3   -1   -1    9   16    0.000000    0.000000
    3   -1   -1   10   16   -0.000000   -0.000000
    3   -1   -1   11   16   -0.000278    0.000000
    3   -1   -1   12   16   -0.000000    0.000000
    3   -1   -1   13   16    0.000000   -0.000278
    3   -1   -1   14   16   -0.000000   -0.000000
    3   -1   -1   15   16    0.000000   -0.000000
    3   -1   -1   16   16    0.003150    0.000000
    3   -1   -1   17   16   -0.000000    0.000000
    3   -1   -1   18   16   -0.000000   -0.000524
    3   -1   -1    1   17    0.000000   -0.000000
    3   -1   -1    2   17   -0.000000    0.000000
    3   -1   -1    3   17   -0.024864   -0.000000
    3   -1   -1    4   17    0.000000    0.000000
    3   -1   -1    5   17   -0.000000   -0.000000
    3   -1   -1    6   17    0.000061   -0.000000
    3   -1   -1    7   17   -0.000000   -0.000000
    3   -1   -1    8   17   -0.000000    0.000061
    3   -1   -1    9   17    0.000000    0.000000
    3   -1   -1   10   17   -0.000000    0.000000
    3   -1   -1   11   17    0.000000    0.000000
    3   -1   -1   12   17   -0.000000   -0.000484
    3   -1   -1   13   17   -0.000000   -0.000000
    3   -1   -1   14   17   -0.000484   -0.000000
    3   -1   -1   15   17    0.000000   -0.000524
    3   -1   -1   16   17    0.000000    0.000000
    3   -1   -1   17   17   -0.006181    0.000000
    3   -1   -1   18   17   -0.000000    0.000000
    3   -1   -1    1   18    0.000000    0.000000
    3   -1   -1    2   18   -0.000000    0.000000
    3   -1   -1    3   18    0.000000   -0.000000
    3   -1   -1    4   18   -0.024864    0.000000
    3   -1   -1    5   18   -0.000061    0.000000
    3   -1   -1    6   18   -0.000000    0.000000
    3   -1   -1    7   18    0.000000    0.000061
    3   -1   -1    8   18    0.000000   -0.000000
    3   -1   -1    9   18   -0.000000    0.000000
    3   -1   -1   10   18   -0.000000    0.000000
    3   -1   -1   11   18    0.000000   -0.000484
    3   -1   -1   12   18    0.000000   -0.000000
    3   -1   -1   13   18    0.000484    0.000000
    3   -1   -1   14   18    0.000000   -0.000000
    3   -1   -1   15   18    0.000000   -0.000000
    3   -1   -1   16   18    0.000000    0.000524
    3   -1   -1   17   18    0.000000   -0.000000
    3   -1   -1   18   18   -0.006181   -0.000000
