 written on  6Mar2023 at 19:23:18 
          18
          93
   -3    1    1    1    1    0.000000    0.000000    0.000000   -0.000000   -0.000000    0.000000
   -3    1    1    2    1   -0.000000   -0.000001   -0.000001   -0.000000    0.000000    0.000000
   -3    1    1    3    1   -0.000000    0.000000   -0.000000   -0.000000   -0.002172   -0.000000
   -3    1    1    4    1   -0.000063    0.000000   -0.000000   -0.000063    0.000000    0.000000
   -3    1    1    5    1   -0.002185    0.000000    0.000000    0.000063    0.000000    0.000000
   -3    1    1    6    1    0.000000   -0.000000    0.000000   -0.000000    0.000059   -0.000000
   -3    1    1    7    1   -0.000000   -0.000063   -0.002185    0.000000   -0.000000   -0.000000
   -3    1    1    8    1   -0.000000    0.000000   -0.000000    0.000000   -0.000000    0.000059
   -3    1    1    9    1   -0.000000   -0.000000   -0.000000    0.000000    0.000000    0.000000
   -3    1    1   10    1   -0.000000    0.000223    0.000223    0.000000    0.000000   -0.000000
   -3    1    1   11    1    0.000000   -0.000066    0.001603    0.000000   -0.000000   -0.000000
   -3    1    1   12    1    0.000000    0.000000   -0.000000    0.000000   -0.000000    0.000067
   -3    1    1   13    1    0.001603   -0.000000    0.000000    0.000066    0.000000   -0.000000
   -3    1    1   14    1   -0.000000    0.000000   -0.000000    0.000000    0.000067   -0.000000
   -3    1    1   15    1    0.000000    0.000000   -0.000000   -0.000000    0.000000   -0.000259
   -3    1    1   16    1    0.000000    0.000131   -0.000131    0.000000   -0.000000    0.000000
   -3    1    1   17    1   -0.000000   -0.000000    0.000000    0.000000    0.001622   -0.000000
   -3    1    1   18    1   -0.000067   -0.000000   -0.000000   -0.000067    0.000000    0.000000
   -3    1    1    1    2    0.000000   -0.000001    0.000001    0.000000   -0.000000    0.000000
   -3    1    1    2    2   -0.000000   -0.000000   -0.000000    0.000000    0.000000    0.000000
   -3    1    1    3    2    0.000063   -0.000000   -0.000000   -0.000063   -0.000000    0.000000
   -3    1    1    4    2   -0.000000    0.000000   -0.000000   -0.000000   -0.002172   -0.000000
   -3    1    1    5    2   -0.000000    0.000000    0.000000   -0.000000   -0.000059    0.000000
   -3    1    1    6    2   -0.002185   -0.000000    0.000000   -0.000063    0.000000    0.000000
   -3    1    1    7    2    0.000000   -0.000000   -0.000000    0.000000    0.000000    0.000059
   -3    1    1    8    2   -0.000000    0.000063   -0.002185   -0.000000   -0.000000    0.000000
   -3    1    1    9    2   -0.000000    0.000223   -0.000223    0.000000    0.000000   -0.000000
   -3    1    1   10    2   -0.000000   -0.000000   -0.000000   -0.000000    0.000000    0.000000
   -3    1    1   11    2   -0.000000   -0.000000   -0.000000   -0.000000    0.000000    0.000067
   -3    1    1   12    2   -0.000000    0.000066    0.001603    0.000000    0.000000    0.000000
   -3    1    1   13    2   -0.000000   -0.000000    0.000000    0.000000   -0.000067   -0.000000
   -3    1    1   14    2    0.001603    0.000000    0.000000   -0.000066   -0.000000    0.000000
   -3    1    1   15    2    0.000000    0.000131    0.000131   -0.000000    0.000000    0.000000
   -3    1    1   16    2    0.000000   -0.000000   -0.000000    0.000000    0.000000    0.000259
   -3    1    1   17    2    0.000067    0.000000   -0.000000   -0.000067    0.000000    0.000000
   -3    1    1   18    2   -0.000000   -0.000000    0.000000    0.000000    0.001622   -0.000000
   -3    1    1    1    3    0.000000    0.000000   -0.000000    0.000000    0.002316    0.000000
   -3    1    1    2    3   -0.000686    0.000000   -0.000000   -0.000686   -0.000000    0.000000
   -3    1    1    3    3    0.000000    0.000000   -0.000000   -0.000000    0.000000   -0.000000
   -3    1    1    4    3    0.000000   -0.000506   -0.000506    0.000000    0.000000   -0.000000
   -3    1    1    5    3   -0.000000    0.000375   -0.002361    0.000000    0.000000    0.000000
   -3    1    1    6    3    0.000000   -0.000000   -0.000000   -0.000000    0.000000    0.000725
   -3    1    1    7    3   -0.002361   -0.000000   -0.000000   -0.000375   -0.000000   -0.000000
   -3    1    1    8    3   -0.000000   -0.000000    0.000000   -0.000000    0.000725    0.000000
   -3    1    1    9    3   -0.000000    0.000000   -0.000000    0.000000   -0.002245    0.000000
   -3    1    1   10    3    0.000011   -0.000000    0.000000    0.000011   -0.000000   -0.000000
   -3    1    1   11    3    0.001551    0.000000   -0.000000   -0.000264   -0.000000   -0.000000
   -3    1    1   12    3   -0.000000    0.000000   -0.000000    0.000000    0.000336   -0.000000
   -3    1    1   13    3    0.000000    0.000264    0.001551    0.000000    0.000000    0.000000
   -3    1    1   14    3    0.000000   -0.000000   -0.000000    0.000000    0.000000    0.000336
   -3    1    1   15    3   -0.000000    0.000000   -0.000000    0.000000   -0.000000    0.000000
   -3    1    1   16    3   -0.000007    0.000000   -0.000000    0.000007   -0.000000    0.000000
   -3    1    1   17    3    0.000000   -0.000000   -0.000000    0.000000    0.000000    0.000000
   -3    1    1   18    3    0.000000   -0.000305   -0.000305    0.000000   -0.000000    0.000000
   -3    1    1    1    4    0.000686    0.000000    0.000000   -0.000686   -0.000000    0.000000
   -3    1    1    2    4    0.000000   -0.000000   -0.000000   -0.000000    0.002316   -0.000000
   -3    1    1    3    4    0.000000   -0.000506    0.000506   -0.000000   -0.000000   -0.000000
   -3    1    1    4    4   -0.000000   -0.000000   -0.000000   -0.000000   -0.000000   -0.000000
   -3    1    1    5    4    0.000000    0.000000    0.000000   -0.000000   -0.000000    0.000725
   -3    1    1    6    4   -0.000000   -0.000375   -0.002361   -0.000000    0.000000    0.000000
   -3    1    1    7    4    0.000000   -0.000000   -0.000000   -0.000000   -0.000725   -0.000000
   -3    1    1    8    4   -0.002361    0.000000   -0.000000    0.000375   -0.000000   -0.000000
   -3    1    1    9    4   -0.000011   -0.000000   -0.000000    0.000011   -0.000000   -0.000000
   -3    1    1   10    4    0.000000   -0.000000    0.000000   -0.000000   -0.002245    0.000000
   -3    1    1   11    4   -0.000000   -0.000000   -0.000000   -0.000000   -0.000336    0.000000
   -3    1    1   12    4    0.001551    0.000000   -0.000000    0.000264    0.000000   -0.000000
   -3    1    1   13    4    0.000000    0.000000   -0.000000   -0.000000   -0.000000    0.000336
   -3    1    1   14    4    0.000000   -0.000264    0.001551    0.000000   -0.000000   -0.000000
   -3    1    1   15    4    0.000007    0.000000   -0.000000    0.000007    0.000000   -0.000000
   -3    1    1   16    4    0.000000   -0.000000   -0.000000    0.000000    0.000000   -0.000000
   -3    1    1   17    4    0.000000   -0.000305    0.000305    0.000000   -0.000000   -0.000000
   -3    1    1   18    4   -0.000000   -0.000000    0.000000   -0.000000    0.000000    0.000000
   -3    1    1    1    5    0.002204    0.000000   -0.000000    0.000685    0.000000    0.000000
   -3    1    1    2    5   -0.000000    0.000000    0.000000   -0.000000    0.000685   -0.000000
   -3    1    1    3    5    0.000000   -0.000730   -0.002415    0.000000    0.000000   -0.000000
   -3    1    1    4    5    0.000000    0.000000   -0.000000   -0.000000   -0.000000   -0.000373
   -3    1    1    5    5   -0.000000    0.000000   -0.000000   -0.000000   -0.000000    0.000806
   -3    1    1    6    5   -0.000000    0.000001    0.000511   -0.000000    0.000000    0.000000
   -3    1    1    7    5   -0.000000    0.000000    0.000000    0.000000   -0.002317   -0.000000
   -3    1    1    8    5   -0.000729    0.000000    0.000000    0.000377   -0.000000    0.000000
   -3    1    1    9    5    0.000996    0.000000   -0.000000    0.000004   -0.000000    0.000000
   -3    1    1   10    5   -0.000000   -0.000000    0.000000   -0.000000    0.000005    0.000000
   -3    1    1   11    5    0.000000    0.000000    0.000000   -0.000000    0.001553    0.000000
   -3    1    1   12    5   -0.000336   -0.000000    0.000000    0.000264    0.000000    0.000000
   -3    1    1   13    5    0.000000    0.000000   -0.000000    0.000000    0.000000    0.000306
   -3    1    1   14    5    0.000000    0.000002    0.000305    0.000000   -0.000000   -0.000000
   -3    1    1   15    5   -0.001808    0.000000   -0.000000   -0.000013    0.000000   -0.000000
   -3    1    1   16    5   -0.000000   -0.000000    0.000000    0.000000   -0.000014    0.000000
   -3    1    1   17    5    0.000000   -0.000336    0.001549    0.000000    0.000000   -0.000000
   -3    1    1   18    5    0.000000   -0.000000    0.000000   -0.000000   -0.000000   -0.000264
   -3    1    1    1    6    0.000000   -0.000000   -0.000000    0.000000   -0.000685   -0.000000
   -3    1    1    2    6    0.002204   -0.000000   -0.000000   -0.000685    0.000000    0.000000
   -3    1    1    3    6   -0.000000   -0.000000    0.000000    0.000000    0.000000   -0.000373
   -3    1    1    4    6    0.000000    0.000730   -0.002415    0.000000    0.000000    0.000000
   -3    1    1    5    6    0.000000    0.000001   -0.000511    0.000000   -0.000000    0.000000
   -3    1    1    6    6    0.000000    0.000000    0.000000   -0.000000   -0.000000   -0.000806
   -3    1    1    7    6    0.000729   -0.000000    0.000000    0.000377    0.000000   -0.000000
   -3    1    1    8    6    0.000000    0.000000   -0.000000   -0.000000   -0.002317   -0.000000
   -3    1    1    9    6    0.000000    0.000000    0.000000    0.000000   -0.000005   -0.000000
   -3    1    1   10    6    0.000996    0.000000    0.000000   -0.000004    0.000000    0.000000
   -3    1    1   11    6    0.000336   -0.000000   -0.000000    0.000264    0.000000   -0.000000
   -3    1    1   12    6    0.000000    0.000000    0.000000   -0.000000    0.001553    0.000000
   -3    1    1   13    6   -0.000000    0.000002   -0.000305   -0.000000    0.000000   -0.000000
   -3    1    1   14    6    0.000000    0.000000    0.000000    0.000000   -0.000000   -0.000306
   -3    1    1   15    6   -0.000000    0.000000    0.000000   -0.000000    0.000014    0.000000
   -3    1    1   16    6   -0.001808    0.000000    0.000000    0.000013   -0.000000   -0.000000
   -3    1    1   17    6   -0.000000    0.000000    0.000000    0.000000   -0.000000   -0.000264
   -3    1    1   18    6   -0.000000    0.000336    0.001549    0.000000    0.000000   -0.000000
   -3    1    1    1    7    0.000000   -0.000685    0.002204    0.000000   -0.000000    0.000000
   -3    1    1    2    7    0.000000   -0.000000    0.000000    0.000000    0.000000    0.000685
   -3    1    1    3    7   -0.002415   -0.000000    0.000000    0.000730   -0.000000   -0.000000
   -3    1    1    4    7    0.000000   -0.000000    0.000000    0.000000   -0.000373   -0.000000
   -3    1    1    5    7    0.000000   -0.000000   -0.000000   -0.000000   -0.002317   -0.000000
   -3    1    1    6    7    0.000377    0.000000    0.000000   -0.000729    0.000000   -0.000000
   -3    1    1    7    7    0.000000    0.000000   -0.000000    0.000000    0.000000   -0.000806
   -3    1    1    8    7    0.000000    0.000511    0.000001   -0.000000    0.000000   -0.000000
   -3    1    1    9    7   -0.000000   -0.000004    0.000996    0.000000   -0.000000   -0.000000
   -3    1    1   10    7    0.000000    0.000000    0.000000   -0.000000    0.000000    0.000005
   -3    1    1   11    7    0.000000   -0.000000   -0.000000   -0.000000    0.000000   -0.000306
   -3    1    1   12    7    0.000000    0.000305    0.000002   -0.000000   -0.000000   -0.000000
   -3    1    1   13    7    0.000000   -0.000000    0.000000   -0.000000    0.001553   -0.000000
   -3    1    1   14    7    0.000264   -0.000000    0.000000   -0.000336    0.000000   -0.000000
   -3    1    1   15    7    0.000000   -0.000013    0.001808   -0.000000    0.000000    0.000000
   -3    1    1   16    7   -0.000000   -0.000000    0.000000    0.000000    0.000000    0.000014
   -3    1    1   17    7    0.001549   -0.000000    0.000000    0.000336    0.000000   -0.000000
   -3    1    1   18    7    0.000000   -0.000000    0.000000   -0.000000   -0.000264    0.000000
   -3    1    1    1    8   -0.000000    0.000000    0.000000    0.000000    0.000000    0.000685
   -3    1    1    2    8   -0.000000    0.000685    0.002204   -0.000000   -0.000000    0.000000
   -3    1    1    3    8    0.000000   -0.000000   -0.000000    0.000000    0.000373    0.000000
   -3    1    1    4    8   -0.002415    0.000000   -0.000000   -0.000730    0.000000   -0.000000
   -3    1    1    5    8   -0.000377   -0.000000   -0.000000   -0.000729    0.000000   -0.000000
   -3    1    1    6    8    0.000000   -0.000000    0.000000   -0.000000   -0.002317   -0.000000
   -3    1    1    7    8    0.000000    0.000511   -0.000001    0.000000    0.000000   -0.000000
   -3    1    1    8    8   -0.000000    0.000000    0.000000   -0.000000   -0.000000    0.000806
   -3    1    1    9    8   -0.000000    0.000000    0.000000    0.000000    0.000000    0.000005
   -3    1    1   10    8    0.000000    0.000004    0.000996    0.000000    0.000000   -0.000000
   -3    1    1   11    8    0.000000    0.000305   -0.000002   -0.000000   -0.000000   -0.000000
   -3    1    1   12    8    0.000000   -0.000000    0.000000   -0.000000   -0.000000    0.000306
   -3    1    1   13    8   -0.000264    0.000000    0.000000   -0.000336    0.000000   -0.000000
   -3    1    1   14    8    0.000000   -0.000000   -0.000000    0.000000    0.001553    0.000000
   -3    1    1   15    8   -0.000000    0.000000    0.000000    0.000000   -0.000000    0.000014
   -3    1    1   16    8    0.000000    0.000013    0.001808   -0.000000    0.000000   -0.000000
   -3    1    1   17    8    0.000000    0.000000   -0.000000    0.000000    0.000264   -0.000000
   -3    1    1   18    8    0.001549    0.000000   -0.000000   -0.000336    0.000000   -0.000000
   -3    1    1    1    9   -0.000000    0.000000   -0.000000    0.000000    0.000000   -0.000000
   -3    1    1    2    9    0.000000   -0.000360   -0.000360   -0.000000    0.000000    0.000000
   -3    1    1    3    9    0.000000   -0.000000    0.000000   -0.000000    0.004451    0.000000
   -3    1    1    4    9    0.000604   -0.000000    0.000000    0.000604    0.000000    0.000000
   -3    1    1    5    9   -0.002228    0.000000   -0.000000   -0.000099    0.000000    0.000000
   -3    1    1    6    9   -0.000000    0.000000   -0.000000    0.000000    0.000700   -0.000000
   -3    1    1    7    9   -0.000000    0.000099   -0.002228   -0.000000    0.000000   -0.000000
   -3    1    1    8    9   -0.000000   -0.000000   -0.000000    0.000000   -0.000000    0.000700
   -3    1    1    9    9    0.000000    0.000000   -0.000000    0.000000    0.000000   -0.000000
   -3    1    1   10    9    0.000000   -0.000009   -0.000009    0.000000    0.000000   -0.000000
   -3    1    1   11    9   -0.000000    0.000024    0.000118    0.000000   -0.000000   -0.000000
   -3    1    1   12    9   -0.000000   -0.000000    0.000000   -0.000000    0.000000   -0.000003
   -3    1    1   13    9    0.000118   -0.000000   -0.000000   -0.000024    0.000000   -0.000000
   -3    1    1   14    9   -0.000000   -0.000000   -0.000000   -0.000000   -0.000003   -0.000000
   -3    1    1   15    9    0.000000    0.000000    0.000000    0.000000    0.000000   -0.000023
   -3    1    1   16    9   -0.000000   -0.000008    0.000008   -0.000000   -0.000000   -0.000000
   -3    1    1   17    9    0.000000   -0.000000   -0.000000   -0.000000   -0.000332    0.000000
   -3    1    1   18    9   -0.000029    0.000000    0.000000   -0.000029    0.000000   -0.000000
   -3    1    1    1   10    0.000000   -0.000360    0.000360    0.000000   -0.000000    0.000000
   -3    1    1    2   10    0.000000    0.000000    0.000000    0.000000   -0.000000    0.000000
   -3    1    1    3   10   -0.000604    0.000000    0.000000    0.000604   -0.000000    0.000000
   -3    1    1    4   10    0.000000   -0.000000   -0.000000   -0.000000    0.004451    0.000000
   -3    1    1    5   10    0.000000   -0.000000   -0.000000    0.000000   -0.000700    0.000000
   -3    1    1    6   10   -0.002228    0.000000   -0.000000    0.000099    0.000000   -0.000000
   -3    1    1    7   10   -0.000000    0.000000   -0.000000   -0.000000    0.000000    0.000700
   -3    1    1    8   10    0.000000   -0.000099   -0.002228    0.000000   -0.000000   -0.000000
   -3    1    1    9   10    0.000000   -0.000009    0.000009   -0.000000    0.000000    0.000000
   -3    1    1   10   10    0.000000    0.000000   -0.000000    0.000000   -0.000000    0.000000
   -3    1    1   11   10    0.000000    0.000000    0.000000   -0.000000    0.000000   -0.000003
   -3    1    1   12   10   -0.000000   -0.000024    0.000118   -0.000000   -0.000000    0.000000
   -3    1    1   13   10    0.000000   -0.000000    0.000000    0.000000    0.000003   -0.000000
   -3    1    1   14   10    0.000118    0.000000    0.000000    0.000024   -0.000000    0.000000
   -3    1    1   15   10    0.000000   -0.000008   -0.000008    0.000000   -0.000000    0.000000
   -3    1    1   16   10   -0.000000    0.000000   -0.000000   -0.000000    0.000000    0.000023
   -3    1    1   17   10    0.000029   -0.000000   -0.000000   -0.000029   -0.000000   -0.000000
   -3    1    1   18   10    0.000000    0.000000    0.000000   -0.000000   -0.000332    0.000000
   -3    1    1    1   11   -0.000000    0.000396    0.002152   -0.000000   -0.000000    0.000000
   -3    1    1    2   11   -0.000000   -0.000000    0.000000    0.000000    0.000000   -0.000396
   -3    1    1    3   11   -0.003124   -0.000000   -0.000000   -0.000019    0.000000   -0.000000
   -3    1    1    4   11    0.000000   -0.000000   -0.000000   -0.000000    0.000859    0.000000
   -3    1    1    5   11   -0.000000   -0.000000   -0.000000   -0.000000   -0.003153    0.000000
   -3    1    1    6   11   -0.000861    0.000000   -0.000000    0.000019   -0.000000   -0.000000
   -3    1    1    7   11    0.000000   -0.000000   -0.000000   -0.000000   -0.000000    0.000406
   -3    1    1    8   11    0.000000   -0.000406   -0.000000    0.000000   -0.000000    0.000000
   -3    1    1    9   11   -0.000000   -0.000006   -0.000030    0.000000   -0.000000    0.000000
   -3    1    1   10   11    0.000000   -0.000000   -0.000000   -0.000000   -0.000000    0.000023
   -3    1    1   11   11    0.000000    0.000000   -0.000000   -0.000000    0.000000    0.000086
   -3    1    1   12   11    0.000000   -0.000080    0.000001   -0.000000   -0.000000   -0.000000
   -3    1    1   13   11   -0.000000   -0.000000    0.000000   -0.000000    0.000597   -0.000000
   -3    1    1   14   11    0.000029    0.000000    0.000000   -0.000055   -0.000000    0.000000
   -3    1    1   15   11   -0.000000   -0.000038    0.000016    0.000000    0.000000    0.000000
   -3    1    1   16   11   -0.000000   -0.000000    0.000000   -0.000000    0.000000    0.000027
   -3    1    1   17   11    0.000597   -0.000000   -0.000000    0.000055   -0.000000   -0.000000
   -3    1    1   18   11    0.000000    0.000000    0.000000   -0.000000   -0.000030   -0.000000
   -3    1    1    1   12    0.000000    0.000000   -0.000000   -0.000000    0.000000   -0.000396
   -3    1    1    2   12   -0.000000   -0.000396    0.002152    0.000000   -0.000000   -0.000000
   -3    1    1    3   12    0.000000    0.000000   -0.000000   -0.000000   -0.000859   -0.000000
   -3    1    1    4   12   -0.003124   -0.000000   -0.000000    0.000019   -0.000000    0.000000
   -3    1    1    5   12    0.000861   -0.000000    0.000000    0.000019   -0.000000   -0.000000
   -3    1    1    6   12   -0.000000   -0.000000    0.000000    0.000000   -0.003153    0.000000
   -3    1    1    7   12   -0.000000   -0.000406    0.000000    0.000000    0.000000   -0.000000
   -3    1    1    8   12   -0.000000   -0.000000   -0.000000    0.000000    0.000000   -0.000406
   -3    1    1    9   12    0.000000   -0.000000    0.000000   -0.000000    0.000000    0.000023
   -3    1    1   10   12   -0.000000    0.000006   -0.000030    0.000000   -0.000000    0.000000
   -3    1    1   11   12   -0.000000   -0.000080   -0.000001   -0.000000    0.000000    0.000000
   -3    1    1   12   12   -0.000000   -0.000000    0.000000   -0.000000   -0.000000   -0.000086
   -3    1    1   13   12   -0.000029    0.000000    0.000000   -0.000055   -0.000000   -0.000000
   -3    1    1   14   12   -0.000000   -0.000000    0.000000   -0.000000    0.000597    0.000000
   -3    1    1   15   12    0.000000   -0.000000    0.000000   -0.000000    0.000000    0.000027
   -3    1    1   16   12   -0.000000    0.000038    0.000016   -0.000000   -0.000000   -0.000000
   -3    1    1   17   12   -0.000000   -0.000000    0.000000    0.000000    0.000030    0.000000
   -3    1    1   18   12    0.000597    0.000000    0.000000   -0.000055    0.000000   -0.000000
   -3    1    1    1   13    0.002152   -0.000000   -0.000000   -0.000396   -0.000000    0.000000
   -3    1    1    2   13    0.000000    0.000000    0.000000   -0.000000   -0.000396   -0.000000
   -3    1    1    3   13   -0.000000    0.000019   -0.003124   -0.000000    0.000000   -0.000000
   -3    1    1    4   13   -0.000000   -0.000000    0.000000   -0.000000    0.000000    0.000859
   -3    1    1    5   13   -0.000000   -0.000000    0.000000    0.000000    0.000000   -0.000406
   -3    1    1    6   13   -0.000000   -0.000000   -0.000406   -0.000000   -0.000000   -0.000000
   -3    1    1    7   13   -0.000000   -0.000000   -0.000000    0.000000   -0.003153   -0.000000
   -3    1    1    8   13    0.000019    0.000000   -0.000000   -0.000861    0.000000    0.000000
   -3    1    1    9   13   -0.000030    0.000000    0.000000    0.000006    0.000000    0.000000
   -3    1    1   10   13   -0.000000   -0.000000    0.000000   -0.000000    0.000023   -0.000000
   -3    1    1   11   13   -0.000000    0.000000    0.000000   -0.000000    0.000597    0.000000
   -3    1    1   12   13   -0.000055   -0.000000   -0.000000    0.000029   -0.000000    0.000000
   -3    1    1   13   13   -0.000000    0.000000    0.000000    0.000000   -0.000000   -0.000086
   -3    1    1   14   13    0.000000    0.000001   -0.000080   -0.000000    0.000000   -0.000000
   -3    1    1   15   13   -0.000016    0.000000    0.000000   -0.000038    0.000000   -0.000000
   -3    1    1   16   13    0.000000   -0.000000    0.000000    0.000000   -0.000027   -0.000000
   -3    1    1   17   13   -0.000000   -0.000055    0.000597   -0.000000   -0.000000    0.000000
   -3    1    1   18   13    0.000000   -0.000000   -0.000000   -0.000000    0.000000   -0.000030
   -3    1    1    1   14    0.000000   -0.000000   -0.000000    0.000000    0.000396    0.000000
   -3    1    1    2   14    0.002152    0.000000    0.000000    0.000396   -0.000000    0.000000
   -3    1    1    3   14   -0.000000   -0.000000   -0.000000   -0.000000   -0.000000    0.000859
   -3    1    1    4   14   -0.000000   -0.000019   -0.003124   -0.000000   -0.000000   -0.000000
   -3    1    1    5   14    0.000000   -0.000000    0.000406    0.000000   -0.000000   -0.000000
   -3    1    1    6   14    0.000000    0.000000   -0.000000    0.000000   -0.000000    0.000406
   -3    1    1    7   14   -0.000019    0.000000    0.000000   -0.000861    0.000000    0.000000
   -3    1    1    8   14   -0.000000    0.000000   -0.000000    0.000000   -0.003153    0.000000
   -3    1    1    9   14    0.000000   -0.000000    0.000000    0.000000   -0.000023    0.000000
   -3    1    1   10   14   -0.000030    0.000000    0.000000   -0.000006   -0.000000    0.000000
   -3    1    1   11   14    0.000055   -0.000000    0.000000    0.000029   -0.000000   -0.000000
   -3    1    1   12   14    0.000000    0.000000    0.000000    0.000000    0.000597   -0.000000
   -3    1    1   13   14    0.000000    0.000001    0.000080   -0.000000    0.000000    0.000000
   -3    1    1   14   14    0.000000   -0.000000    0.000000   -0.000000   -0.000000    0.000086
   -3    1    1   15   14    0.000000   -0.000000    0.000000    0.000000    0.000027   -0.000000
   -3    1    1   16   14   -0.000016    0.000000    0.000000    0.000038    0.000000   -0.000000
   -3    1    1   17   14    0.000000    0.000000   -0.000000    0.000000   -0.000000   -0.000030
   -3    1    1   18   14    0.000000    0.000055    0.000597    0.000000   -0.000000    0.000000
   -3    1    1    1   15   -0.000000   -0.000000    0.000000    0.000000   -0.000000    0.000413
   -3    1    1    2   15   -0.000000   -0.000207    0.000207   -0.000000   -0.000000    0.000000
   -3    1    1    3   15   -0.000000    0.000000   -0.000000   -0.000000   -0.000000   -0.000000
   -3    1    1    4   15   -0.000461    0.000000    0.000000    0.000461   -0.000000   -0.000000
   -3    1    1    5   15    0.003862    0.000000   -0.000000   -0.000750   -0.000000   -0.000000
   -3    1    1    6   15    0.000000   -0.000000    0.000000    0.000000   -0.000295    0.000000
   -3    1    1    7   15   -0.000000   -0.000750   -0.003862    0.000000    0.000000   -0.000000
   -3    1    1    8   15   -0.000000    0.000000   -0.000000    0.000000    0.000000    0.000295
   -3    1    1    9   15   -0.000000    0.000000    0.000000   -0.000000   -0.000000    0.000006
   -3    1    1   10   15   -0.000000    0.000017   -0.000017    0.000000    0.000000   -0.000000
   -3    1    1   11   15    0.000000    0.000020    0.000263    0.000000    0.000000    0.000000
   -3    1    1   12   15    0.000000   -0.000000    0.000000    0.000000    0.000000   -0.000030
   -3    1    1   13   15   -0.000263    0.000000   -0.000000    0.000020   -0.000000   -0.000000
   -3    1    1   14   15   -0.000000    0.000000   -0.000000    0.000000    0.000030    0.000000
   -3    1    1   15   15   -0.000000   -0.000000    0.000000    0.000000   -0.000000    0.000000
   -3    1    1   16   15   -0.000000    0.000009    0.000009    0.000000   -0.000000   -0.000000
   -3    1    1   17   15   -0.000000   -0.000000   -0.000000   -0.000000   -0.000000   -0.000000
   -3    1    1   18   15   -0.000012   -0.000000    0.000000    0.000012    0.000000    0.000000
   -3    1    1    1   16   -0.000000   -0.000207   -0.000207   -0.000000    0.000000   -0.000000
   -3    1    1    2   16   -0.000000   -0.000000    0.000000   -0.000000   -0.000000   -0.000413
   -3    1    1    3   16    0.000461   -0.000000   -0.000000    0.000461    0.000000    0.000000
   -3    1    1    4   16   -0.000000    0.000000    0.000000    0.000000    0.000000   -0.000000
   -3    1    1    5   16   -0.000000   -0.000000    0.000000    0.000000    0.000295   -0.000000
   -3    1    1    6   16    0.003862    0.000000    0.000000    0.000750   -0.000000   -0.000000
   -3    1    1    7   16    0.000000   -0.000000   -0.000000   -0.000000   -0.000000    0.000295
   -3    1    1    8   16   -0.000000    0.000750   -0.003862    0.000000   -0.000000   -0.000000
   -3    1    1    9   16   -0.000000    0.000017    0.000017   -0.000000    0.000000   -0.000000
   -3    1    1   10   16   -0.000000   -0.000000   -0.000000   -0.000000   -0.000000   -0.000006
   -3    1    1   11   16    0.000000    0.000000    0.000000    0.000000   -0.000000   -0.000030
   -3    1    1   12   16   -0.000000   -0.000020    0.000263   -0.000000   -0.000000   -0.000000
   -3    1    1   13   16   -0.000000    0.000000    0.000000    0.000000   -0.000030    0.000000
   -3    1    1   14   16   -0.000263   -0.000000   -0.000000   -0.000020   -0.000000   -0.000000
   -3    1    1   15   16    0.000000    0.000009   -0.000009    0.000000   -0.000000   -0.000000
   -3    1    1   16   16    0.000000   -0.000000   -0.000000    0.000000   -0.000000    0.000000
   -3    1    1   17   16    0.000012   -0.000000   -0.000000    0.000012    0.000000   -0.000000
   -3    1    1   18   16   -0.000000   -0.000000    0.000000   -0.000000    0.000000   -0.000000
   -3    1    1    1   17    0.000000   -0.000000    0.000000    0.000000    0.002148   -0.000000
   -3    1    1    2   17    0.000396   -0.000000   -0.000000    0.000396    0.000000    0.000000
   -3    1    1    3   17   -0.000000   -0.000000    0.000000   -0.000000   -0.000000    0.000000
   -3    1    1    4   17   -0.000000    0.000405    0.000405    0.000000   -0.000000   -0.000000
   -3    1    1    5   17    0.000000   -0.000860   -0.003143   -0.000000   -0.000000   -0.000000
   -3    1    1    6   17    0.000000    0.000000   -0.000000   -0.000000   -0.000000   -0.000019
   -3    1    1    7   17   -0.003143    0.000000    0.000000    0.000860   -0.000000   -0.000000
   -3    1    1    8   17    0.000000    0.000000   -0.000000    0.000000   -0.000019    0.000000
   -3    1    1    9   17    0.000000    0.000000   -0.000000   -0.000000   -0.000055   -0.000000
   -3    1    1   10   17    0.000040    0.000000   -0.000000    0.000040    0.000000   -0.000000
   -3    1    1   11   17    0.000594   -0.000000   -0.000000   -0.000030   -0.000000    0.000000
   -3    1    1   12   17   -0.000000    0.000000    0.000000   -0.000000    0.000055   -0.000000
   -3    1    1   13   17    0.000000    0.000030    0.000594    0.000000    0.000000   -0.000000
   -3    1    1   14   17   -0.000000    0.000000    0.000000   -0.000000   -0.000000    0.000055
   -3    1    1   15   17    0.000000    0.000000   -0.000000   -0.000000    0.000000    0.000000
   -3    1    1   16   17   -0.000010    0.000000    0.000000    0.000010    0.000000    0.000000
   -3    1    1   17   17    0.000000    0.000000   -0.000000   -0.000000   -0.000000   -0.000000
   -3    1    1   18   17   -0.000000    0.000079    0.000079   -0.000000    0.000000   -0.000000
   -3    1    1    1   18   -0.000396   -0.000000    0.000000    0.000396   -0.000000   -0.000000
   -3    1    1    2   18    0.000000   -0.000000    0.000000    0.000000    0.002148   -0.000000
   -3    1    1    3   18   -0.000000    0.000405   -0.000405    0.000000   -0.000000   -0.000000
   -3    1    1    4   18   -0.000000    0.000000   -0.000000    0.000000   -0.000000   -0.000000
   -3    1    1    5   18    0.000000   -0.000000   -0.000000    0.000000    0.000000   -0.000019
   -3    1    1    6   18    0.000000    0.000860   -0.003143   -0.000000    0.000000    0.000000
   -3    1    1    7   18    0.000000   -0.000000   -0.000000    0.000000    0.000019    0.000000
   -3    1    1    8   18   -0.003143   -0.000000    0.000000   -0.000860   -0.000000    0.000000
   -3    1    1    9   18   -0.000040    0.000000   -0.000000    0.000040    0.000000   -0.000000
   -3    1    1   10   18   -0.000000    0.000000   -0.000000    0.000000   -0.000055    0.000000
   -3    1    1   11   18   -0.000000    0.000000   -0.000000    0.000000   -0.000055   -0.000000
   -3    1    1   12   18    0.000594   -0.000000   -0.000000    0.000030    0.000000    0.000000
   -3    1    1   13   18   -0.000000    0.000000   -0.000000    0.000000    0.000000    0.000055
   -3    1    1   14   18   -0.000000   -0.000030    0.000594   -0.000000    0.000000   -0.000000
   -3    1    1   15   18    0.000010   -0.000000   -0.000000    0.000010    0.000000   -0.000000
   -3    1    1   16   18   -0.000000   -0.000000    0.000000    0.000000    0.000000    0.000000
   -3    1    1   17   18   -0.000000    0.000079   -0.000079    0.000000    0.000000    0.000000
   -3    1    1   18   18    0.000000    0.000000   -0.000000   -0.000000    0.000000    0.000000
   -2   -2    2    1    1   -0.000000    0.000000   -0.000000    0.000000   -0.000000    0.000000
   -2   -2    2    2    1   -0.000000    0.000000   -0.000000    0.000000    0.000000    0.000000
   -2   -2    2    3    1   -0.000000   -0.000000    0.000000    0.000000   -0.001355   -0.000000
   -2   -2    2    4    1    0.000106    0.000000   -0.000000    0.000106    0.000000    0.000000
   -2   -2    2    5    1   -0.001341    0.000000   -0.000000   -0.000105    0.000000   -0.000000
   -2   -2    2    6    1    0.000000   -0.000000   -0.000000    0.000000   -0.000109   -0.000000
   -2   -2    2    7    1    0.000000    0.000105   -0.001341   -0.000000   -0.000000    0.000000
   -2   -2    2    8    1   -0.000000    0.000000    0.000000    0.000000   -0.000000   -0.000109
   -2   -2    2    9    1    0.000000   -0.000000   -0.000000   -0.000000    0.000000   -0.000000
   -2   -2    2   10    1    0.000000    0.000000   -0.000000   -0.000000    0.000000    0.000000
   -2   -2    2   11    1    0.000000   -0.000000    0.000000   -0.000000    0.000000   -0.000000
   -2   -2    2   12    1    0.000000   -0.000000   -0.000000   -0.000000   -0.000000    0.000000
   -2   -2    2   13    1    0.000000   -0.000000   -0.000000    0.000000   -0.000000   -0.000000
   -2   -2    2   14    1    0.000000   -0.000000    0.000000    0.000000   -0.000000   -0.000000
   -2   -2    2   15    1   -0.000000    0.000000    0.000000    0.000000    0.000000   -0.000000
   -2   -2    2   16    1   -0.000000   -0.000000   -0.000000   -0.000000    0.000000   -0.000000
   -2   -2    2   17    1    0.000000    0.000000   -0.000000   -0.000000    0.000000    0.000000
   -2   -2    2   18    1   -0.000000   -0.000000    0.000000    0.000000   -0.000000    0.000000
   -2   -2    2    1    2    0.000000    0.000000    0.000000    0.000000   -0.000000    0.000000
   -2   -2    2    2    2    0.000000   -0.000000   -0.000000   -0.000000   -0.000000    0.000000
   -2   -2    2    3    2   -0.000106   -0.000000    0.000000    0.000106   -0.000000    0.000000
   -2   -2    2    4    2   -0.000000    0.000000   -0.000000   -0.000000   -0.001355   -0.000000
   -2   -2    2    5    2   -0.000000   -0.000000   -0.000000   -0.000000    0.000109    0.000000
   -2   -2    2    6    2   -0.001341    0.000000   -0.000000    0.000105    0.000000   -0.000000
   -2   -2    2    7    2    0.000000    0.000000   -0.000000    0.000000    0.000000   -0.000109
   -2   -2    2    8    2    0.000000   -0.000105   -0.001341   -0.000000   -0.000000   -0.000000
   -2   -2    2    9    2   -0.000000   -0.000000   -0.000000    0.000000    0.000000    0.000000
   -2   -2    2   10    2   -0.000000   -0.000000   -0.000000   -0.000000   -0.000000   -0.000000
   -2   -2    2   11    2   -0.000000    0.000000   -0.000000   -0.000000   -0.000000    0.000000
   -2   -2    2   12    2   -0.000000    0.000000    0.000000    0.000000    0.000000   -0.000000
   -2   -2    2   13    2   -0.000000   -0.000000    0.000000   -0.000000   -0.000000   -0.000000
   -2   -2    2   14    2    0.000000   -0.000000   -0.000000    0.000000   -0.000000   -0.000000
   -2   -2    2   15    2    0.000000    0.000000    0.000000    0.000000   -0.000000    0.000000
   -2   -2    2   16    2    0.000000    0.000000    0.000000   -0.000000   -0.000000   -0.000000
   -2   -2    2   17    2   -0.000000    0.000000   -0.000000    0.000000   -0.000000    0.000000
   -2   -2    2   18    2   -0.000000   -0.000000    0.000000   -0.000000    0.000000    0.000000
   -2   -2    2    1    3    0.000000   -0.000000   -0.000000    0.000000    0.001355   -0.000000
   -2   -2    2    2    3    0.000106   -0.000000   -0.000000    0.000106    0.000000    0.000000
   -2   -2    2    3    3   -0.000000   -0.000000   -0.000000   -0.000000    0.000000    0.000000
   -2   -2    2    4    3   -0.000000    0.000000   -0.000000   -0.000000    0.000000    0.000000
   -2   -2    2    5    3   -0.000000   -0.000000   -0.000000   -0.000000    0.000000   -0.000000
   -2   -2    2    6    3    0.000000   -0.000000   -0.000000    0.000000   -0.000000    0.000000
   -2   -2    2    7    3    0.000000    0.000000   -0.000000   -0.000000   -0.000000   -0.000000
   -2   -2    2    8    3    0.000000    0.000000    0.000000    0.000000   -0.000000   -0.000000
   -2   -2    2    9    3   -0.000000    0.000000    0.000000   -0.000000   -0.001183   -0.000000
   -2   -2    2   10    3   -0.000015    0.000000    0.000000   -0.000015    0.000000    0.000000
   -2   -2    2   11    3   -0.000338    0.000000   -0.000000   -0.000115   -0.000000   -0.000000
   -2   -2    2   12    3   -0.000000   -0.000000    0.000000   -0.000000    0.000653   -0.000000
   -2   -2    2   13    3   -0.000000    0.000115   -0.000338   -0.000000    0.000000   -0.000000
   -2   -2    2   14    3    0.000000   -0.000000    0.000000    0.000000    0.000000    0.000653
   -2   -2    2   15    3   -0.000000   -0.000000    0.000000   -0.000000    0.000000    0.000000
   -2   -2    2   16    3   -0.000354   -0.000000   -0.000000    0.000354   -0.000000   -0.000000
   -2   -2    2   17    3    0.000000    0.000000   -0.000000   -0.000000   -0.000000    0.000000
   -2   -2    2   18    3   -0.000000    0.000653    0.000653   -0.000000    0.000000   -0.000000
   -2   -2    2    1    4   -0.000106    0.000000    0.000000    0.000106   -0.000000    0.000000
   -2   -2    2    2    4    0.000000    0.000000    0.000000   -0.000000    0.001355   -0.000000
   -2   -2    2    3    4    0.000000    0.000000    0.000000   -0.000000   -0.000000    0.000000
   -2   -2    2    4    4   -0.000000    0.000000   -0.000000    0.000000   -0.000000    0.000000
   -2   -2    2    5    4    0.000000    0.000000   -0.000000   -0.000000   -0.000000    0.000000
   -2   -2    2    6    4   -0.000000   -0.000000   -0.000000    0.000000    0.000000    0.000000
   -2   -2    2    7    4   -0.000000   -0.000000   -0.000000   -0.000000    0.000000   -0.000000
   -2   -2    2    8    4   -0.000000    0.000000    0.000000   -0.000000    0.000000   -0.000000
   -2   -2    2    9    4    0.000015   -0.000000   -0.000000   -0.000015   -0.000000   -0.000000
   -2   -2    2   10    4   -0.000000   -0.000000   -0.000000   -0.000000   -0.001183    0.000000
   -2   -2    2   11    4    0.000000    0.000000   -0.000000    0.000000   -0.000653   -0.000000
   -2   -2    2   12    4   -0.000338   -0.000000   -0.000000    0.000115    0.000000    0.000000
   -2   -2    2   13    4   -0.000000    0.000000   -0.000000    0.000000   -0.000000    0.000653
   -2   -2    2   14    4    0.000000   -0.000115   -0.000338   -0.000000    0.000000   -0.000000
   -2   -2    2   15    4    0.000354   -0.000000   -0.000000    0.000354    0.000000   -0.000000
   -2   -2    2   16    4    0.000000    0.000000   -0.000000    0.000000   -0.000000   -0.000000
   -2   -2    2   17    4    0.000000    0.000653   -0.000653    0.000000   -0.000000    0.000000
   -2   -2    2   18    4   -0.000000   -0.000000    0.000000    0.000000   -0.000000   -0.000000
   -2   -2    2    1    5    0.001341    0.000000    0.000000   -0.000105   -0.000000   -0.000000
   -2   -2    2    2    5    0.000000   -0.000000    0.000000   -0.000000   -0.000109    0.000000
   -2   -2    2    3    5    0.000000   -0.000000    0.000000   -0.000000   -0.000000   -0.000000
   -2   -2    2    4    5   -0.000000    0.000000    0.000000   -0.000000    0.000000    0.000000
   -2   -2    2    5    5   -0.000000    0.000000   -0.000000   -0.000000   -0.000000   -0.000000
   -2   -2    2    6    5    0.000000   -0.000000    0.000000    0.000000    0.000000    0.000000
   -2   -2    2    7    5   -0.000000    0.000000   -0.000000   -0.000000    0.000000   -0.000000
   -2   -2    2    8    5   -0.000000    0.000000    0.000000    0.000000    0.000000   -0.000000
   -2   -2    2    9    5    0.000579    0.000000   -0.000000   -0.000308   -0.000000   -0.000000
   -2   -2    2   10    5   -0.000000   -0.000000   -0.000000    0.000000    0.000306    0.000000
   -2   -2    2   11    5    0.000000   -0.000000    0.000000    0.000000   -0.000332    0.000000
   -2   -2    2   12    5   -0.000648    0.000000    0.000000    0.000116    0.000000   -0.000000
   -2   -2    2   13    5    0.000000   -0.000000   -0.000000    0.000000   -0.000000   -0.000652
   -2   -2    2   14    5    0.000000   -0.000000   -0.000652   -0.000000    0.000000   -0.000000
   -2   -2    2   15    5   -0.001028    0.000000   -0.000000   -0.000166    0.000000   -0.000000
   -2   -2    2   16    5    0.000000    0.000000   -0.000000    0.000000    0.000187    0.000000
   -2   -2    2   17    5    0.000000   -0.000650   -0.000334   -0.000000    0.000000   -0.000000
   -2   -2    2   18    5    0.000000    0.000000    0.000000    0.000000    0.000000   -0.000116
   -2   -2    2    1    6   -0.000000   -0.000000    0.000000    0.000000    0.000109   -0.000000
   -2   -2    2    2    6    0.001341    0.000000    0.000000    0.000105   -0.000000   -0.000000
   -2   -2    2    3    6   -0.000000   -0.000000    0.000000    0.000000    0.000000    0.000000
   -2   -2    2    4    6    0.000000   -0.000000    0.000000    0.000000   -0.000000    0.000000
   -2   -2    2    5    6   -0.000000   -0.000000   -0.000000    0.000000   -0.000000    0.000000
   -2   -2    2    6    6    0.000000   -0.000000    0.000000    0.000000   -0.000000   -0.000000
   -2   -2    2    7    6    0.000000   -0.000000    0.000000   -0.000000    0.000000    0.000000
   -2   -2    2    8    6    0.000000   -0.000000   -0.000000    0.000000    0.000000    0.000000
   -2   -2    2    9    6    0.000000    0.000000    0.000000    0.000000   -0.000306   -0.000000
   -2   -2    2   10    6    0.000579    0.000000   -0.000000    0.000308   -0.000000   -0.000000
   -2   -2    2   11    6    0.000648    0.000000    0.000000    0.000116    0.000000   -0.000000
   -2   -2    2   12    6    0.000000   -0.000000   -0.000000    0.000000   -0.000332    0.000000
   -2   -2    2   13    6    0.000000   -0.000000    0.000652   -0.000000    0.000000    0.000000
   -2   -2    2   14    6   -0.000000    0.000000    0.000000    0.000000    0.000000    0.000652
   -2   -2    2   15    6    0.000000   -0.000000   -0.000000   -0.000000   -0.000187    0.000000
   -2   -2    2   16    6   -0.001028    0.000000   -0.000000    0.000166    0.000000   -0.000000
   -2   -2    2   17    6   -0.000000    0.000000    0.000000   -0.000000    0.000000   -0.000116
   -2   -2    2   18    6    0.000000    0.000650   -0.000334   -0.000000   -0.000000    0.000000
   -2   -2    2    1    7   -0.000000    0.000105    0.001341   -0.000000    0.000000    0.000000
   -2   -2    2    2    7   -0.000000    0.000000    0.000000    0.000000   -0.000000   -0.000109
   -2   -2    2    3    7   -0.000000    0.000000    0.000000   -0.000000    0.000000   -0.000000
   -2   -2    2    4    7    0.000000   -0.000000    0.000000   -0.000000   -0.000000   -0.000000
   -2   -2    2    5    7    0.000000    0.000000    0.000000   -0.000000   -0.000000   -0.000000
   -2   -2    2    6    7   -0.000000   -0.000000   -0.000000   -0.000000   -0.000000    0.000000
   -2   -2    2    7    7   -0.000000   -0.000000   -0.000000    0.000000   -0.000000    0.000000
   -2   -2    2    8    7    0.000000    0.000000    0.000000    0.000000   -0.000000   -0.000000
   -2   -2    2    9    7    0.000000    0.000308    0.000579    0.000000   -0.000000   -0.000000
   -2   -2    2   10    7    0.000000   -0.000000    0.000000   -0.000000   -0.000000    0.000306
   -2   -2    2   11    7   -0.000000   -0.000000   -0.000000   -0.000000   -0.000000    0.000652
   -2   -2    2   12    7    0.000000   -0.000652   -0.000000    0.000000    0.000000   -0.000000
   -2   -2    2   13    7   -0.000000   -0.000000    0.000000    0.000000   -0.000332   -0.000000
   -2   -2    2   14    7    0.000116    0.000000   -0.000000   -0.000648    0.000000   -0.000000
   -2   -2    2   15    7    0.000000   -0.000166    0.001028   -0.000000   -0.000000   -0.000000
   -2   -2    2   16    7   -0.000000    0.000000    0.000000    0.000000    0.000000   -0.000187
   -2   -2    2   17    7   -0.000334   -0.000000   -0.000000    0.000650   -0.000000   -0.000000
   -2   -2    2   18    7   -0.000000    0.000000   -0.000000   -0.000000   -0.000116   -0.000000
   -2   -2    2    1    8    0.000000    0.000000   -0.000000    0.000000    0.000000   -0.000109
   -2   -2    2    2    8   -0.000000   -0.000105    0.001341   -0.000000    0.000000   -0.000000
   -2   -2    2    3    8   -0.000000    0.000000   -0.000000    0.000000    0.000000   -0.000000
   -2   -2    2    4    8    0.000000    0.000000   -0.000000   -0.000000   -0.000000   -0.000000
   -2   -2    2    5    8    0.000000    0.000000   -0.000000    0.000000   -0.000000   -0.000000
   -2   -2    2    6    8   -0.000000   -0.000000    0.000000    0.000000   -0.000000    0.000000
   -2   -2    2    7    8   -0.000000    0.000000   -0.000000    0.000000    0.000000   -0.000000
   -2   -2    2    8    8    0.000000    0.000000   -0.000000   -0.000000    0.000000   -0.000000
   -2   -2    2    9    8   -0.000000   -0.000000    0.000000    0.000000    0.000000    0.000306
   -2   -2    2   10    8   -0.000000   -0.000308    0.000579    0.000000    0.000000    0.000000
   -2   -2    2   11    8   -0.000000   -0.000652    0.000000   -0.000000    0.000000    0.000000
   -2   -2    2   12    8    0.000000   -0.000000    0.000000    0.000000    0.000000   -0.000652
   -2   -2    2   13    8   -0.000116   -0.000000    0.000000   -0.000648   -0.000000    0.000000
   -2   -2    2   14    8    0.000000   -0.000000   -0.000000    0.000000   -0.000332    0.000000
   -2   -2    2   15    8    0.000000    0.000000    0.000000    0.000000   -0.000000   -0.000187
   -2   -2    2   16    8   -0.000000    0.000166    0.001028    0.000000    0.000000   -0.000000
   -2   -2    2   17    8   -0.000000   -0.000000    0.000000    0.000000    0.000116   -0.000000
   -2   -2    2   18    8   -0.000334   -0.000000    0.000000   -0.000650    0.000000   -0.000000
   -2   -2    2    1    9   -0.000000   -0.000000    0.000000   -0.000000   -0.000000   -0.000000
   -2   -2    2    2    9    0.000000   -0.000000    0.000000    0.000000   -0.000000    0.000000
   -2   -2    2    3    9    0.000000    0.000000   -0.000000   -0.000000    0.001183   -0.000000
   -2   -2    2    4    9   -0.000015   -0.000000    0.000000   -0.000015    0.000000   -0.000000
   -2   -2    2    5    9   -0.000579    0.000000    0.000000   -0.000308    0.000000   -0.000000
   -2   -2    2    6    9   -0.000000    0.000000   -0.000000    0.000000    0.000306   -0.000000
   -2   -2    2    7    9   -0.000000    0.000308   -0.000579    0.000000    0.000000   -0.000000
   -2   -2    2    8    9    0.000000   -0.000000   -0.000000    0.000000   -0.000000    0.000306
   -2   -2    2    9    9   -0.000000    0.000000   -0.000000    0.000000   -0.000000   -0.000000
   -2   -2    2   10    9   -0.000000    0.000000   -0.000000   -0.000000    0.000000    0.000000
   -2   -2    2   11    9   -0.000000   -0.000000    0.000000    0.000000    0.000000    0.000000
   -2   -2    2   12    9    0.000000    0.000000   -0.000000    0.000000    0.000000    0.000000
   -2   -2    2   13    9   -0.000000   -0.000000    0.000000    0.000000   -0.000000   -0.000000
   -2   -2    2   14    9    0.000000   -0.000000   -0.000000   -0.000000   -0.000000   -0.000000
   -2   -2    2   15    9    0.000000   -0.000000   -0.000000    0.000000    0.000000   -0.000000
   -2   -2    2   16    9   -0.000000    0.000000    0.000000    0.000000    0.000000   -0.000000
   -2   -2    2   17    9   -0.000000   -0.000000   -0.000000    0.000000   -0.000000    0.000000
   -2   -2    2   18    9    0.000000   -0.000000    0.000000   -0.000000    0.000000   -0.000000
   -2   -2    2    1   10   -0.000000    0.000000    0.000000   -0.000000   -0.000000    0.000000
   -2   -2    2    2   10    0.000000   -0.000000    0.000000   -0.000000    0.000000   -0.000000
   -2   -2    2    3   10    0.000015    0.000000   -0.000000   -0.000015   -0.000000    0.000000
   -2   -2    2    4   10    0.000000   -0.000000    0.000000   -0.000000    0.001183    0.000000
   -2   -2    2    5   10    0.000000   -0.000000    0.000000    0.000000   -0.000306    0.000000
   -2   -2    2    6   10   -0.000579    0.000000    0.000000    0.000308    0.000000   -0.000000
   -2   -2    2    7   10   -0.000000   -0.000000   -0.000000   -0.000000    0.000000    0.000306
   -2   -2    2    8   10    0.000000   -0.000308   -0.000579    0.000000   -0.000000    0.000000
   -2   -2    2    9   10    0.000000    0.000000    0.000000   -0.000000   -0.000000    0.000000
   -2   -2    2   10   10    0.000000   -0.000000    0.000000   -0.000000   -0.000000   -0.000000
   -2   -2    2   11   10   -0.000000   -0.000000   -0.000000   -0.000000    0.000000   -0.000000
   -2   -2    2   12   10    0.000000    0.000000   -0.000000    0.000000   -0.000000    0.000000
   -2   -2    2   13   10   -0.000000   -0.000000   -0.000000   -0.000000   -0.000000   -0.000000
   -2   -2    2   14   10    0.000000    0.000000   -0.000000    0.000000    0.000000    0.000000
   -2   -2    2   15   10   -0.000000   -0.000000    0.000000    0.000000    0.000000   -0.000000
   -2   -2    2   16   10   -0.000000    0.000000   -0.000000   -0.000000    0.000000    0.000000
   -2   -2    2   17   10    0.000000    0.000000   -0.000000    0.000000    0.000000   -0.000000
   -2   -2    2   18   10   -0.000000    0.000000   -0.000000    0.000000   -0.000000    0.000000
   -2   -2    2    1   11   -0.000000   -0.000000   -0.000000   -0.000000   -0.000000   -0.000000
   -2   -2    2    2   11    0.000000    0.000000    0.000000   -0.000000    0.000000    0.000000
   -2   -2    2    3   11    0.000338    0.000000    0.000000   -0.000115    0.000000   -0.000000
   -2   -2    2    4   11   -0.000000    0.000000    0.000000    0.000000    0.000653   -0.000000
   -2   -2    2    5   11   -0.000000   -0.000000   -0.000000    0.000000    0.000332    0.000000
   -2   -2    2    6   11   -0.000648    0.000000   -0.000000    0.000116   -0.000000   -0.000000
   -2   -2    2    7   11    0.000000   -0.000000    0.000000   -0.000000    0.000000    0.000652
   -2   -2    2    8   11    0.000000   -0.000652   -0.000000   -0.000000   -0.000000    0.000000
   -2   -2    2    9   11    0.000000   -0.000000   -0.000000    0.000000   -0.000000    0.000000
   -2   -2    2   10   11    0.000000   -0.000000    0.000000   -0.000000   -0.000000   -0.000000
   -2   -2    2   11   11   -0.000000   -0.000000   -0.000000    0.000000   -0.000000    0.000000
   -2   -2    2   12   11    0.000000   -0.000000   -0.000000   -0.000000    0.000000   -0.000000
   -2   -2    2   13   11   -0.000000    0.000000   -0.000000    0.000000   -0.000000   -0.000000
   -2   -2    2   14   11   -0.000000    0.000000   -0.000000   -0.000000    0.000000   -0.000000
   -2   -2    2   15   11   -0.000000    0.000000    0.000000    0.000000    0.000000   -0.000000
   -2   -2    2   16   11    0.000000    0.000000    0.000000   -0.000000    0.000000   -0.000000
   -2   -2    2   17   11   -0.000000    0.000000    0.000000   -0.000000   -0.000000   -0.000000
   -2   -2    2   18   11    0.000000    0.000000    0.000000   -0.000000    0.000000   -0.000000
   -2   -2    2    1   12   -0.000000   -0.000000    0.000000   -0.000000    0.000000    0.000000
   -2   -2    2    2   12    0.000000    0.000000   -0.000000    0.000000   -0.000000   -0.000000
   -2   -2    2    3   12    0.000000   -0.000000   -0.000000   -0.000000   -0.000653   -0.000000
   -2   -2    2    4   12    0.000338   -0.000000    0.000000    0.000115   -0.000000    0.000000
   -2   -2    2    5   12    0.000648    0.000000   -0.000000    0.000116   -0.000000   -0.000000
   -2   -2    2    6   12   -0.000000   -0.000000    0.000000    0.000000    0.000332    0.000000
   -2   -2    2    7   12   -0.000000   -0.000652    0.000000    0.000000   -0.000000   -0.000000
   -2   -2    2    8   12   -0.000000   -0.000000   -0.000000    0.000000   -0.000000   -0.000652
   -2   -2    2    9   12   -0.000000    0.000000    0.000000    0.000000   -0.000000    0.000000
   -2   -2    2   10   12   -0.000000    0.000000    0.000000    0.000000    0.000000    0.000000
   -2   -2    2   11   12   -0.000000   -0.000000    0.000000   -0.000000   -0.000000   -0.000000
   -2   -2    2   12   12    0.000000    0.000000   -0.000000   -0.000000    0.000000    0.000000
   -2   -2    2   13   12    0.000000   -0.000000    0.000000   -0.000000    0.000000   -0.000000
   -2   -2    2   14   12   -0.000000    0.000000   -0.000000   -0.000000    0.000000    0.000000
   -2   -2    2   15   12   -0.000000   -0.000000    0.000000    0.000000    0.000000    0.000000
   -2   -2    2   16   12   -0.000000   -0.000000   -0.000000   -0.000000    0.000000    0.000000
   -2   -2    2   17   12   -0.000000    0.000000   -0.000000    0.000000    0.000000   -0.000000
   -2   -2    2   18   12   -0.000000    0.000000   -0.000000    0.000000   -0.000000    0.000000
   -2   -2    2    1   13   -0.000000   -0.000000    0.000000    0.000000    0.000000   -0.000000
   -2   -2    2    2   13    0.000000   -0.000000   -0.000000   -0.000000    0.000000   -0.000000
   -2   -2    2    3   13    0.000000    0.000115    0.000338   -0.000000   -0.000000   -0.000000
   -2   -2    2    4   13    0.000000    0.000000    0.000000    0.000000    0.000000    0.000653
   -2   -2    2    5   13   -0.000000   -0.000000    0.000000    0.000000    0.000000   -0.000652
   -2   -2    2    6   13   -0.000000   -0.000000   -0.000652   -0.000000   -0.000000    0.000000
   -2   -2    2    7   13    0.000000   -0.000000   -0.000000    0.000000    0.000332   -0.000000
   -2   -2    2    8   13    0.000116   -0.000000   -0.000000   -0.000648    0.000000    0.000000
   -2   -2    2    9   13    0.000000   -0.000000   -0.000000    0.000000    0.000000   -0.000000
   -2   -2    2   10   13    0.000000   -0.000000    0.000000   -0.000000    0.000000   -0.000000
   -2   -2    2   11   13    0.000000    0.000000    0.000000    0.000000    0.000000   -0.000000
   -2   -2    2   12   13   -0.000000   -0.000000   -0.000000   -0.000000   -0.000000   -0.000000
   -2   -2    2   13   13    0.000000    0.000000   -0.000000   -0.000000    0.000000   -0.000000
   -2   -2    2   14   13   -0.000000   -0.000000    0.000000   -0.000000   -0.000000   -0.000000
   -2   -2    2   15   13    0.000000   -0.000000    0.000000   -0.000000   -0.000000    0.000000
   -2   -2    2   16   13   -0.000000   -0.000000   -0.000000   -0.000000    0.000000    0.000000
   -2   -2    2   17   13    0.000000    0.000000   -0.000000   -0.000000    0.000000    0.000000
   -2   -2    2   18   13   -0.000000    0.000000   -0.000000    0.000000    0.000000    0.000000
   -2   -2    2    1   14   -0.000000   -0.000000   -0.000000    0.000000    0.000000   -0.000000
   -2   -2    2    2   14   -0.000000   -0.000000    0.000000    0.000000    0.000000   -0.000000
   -2   -2    2    3   14   -0.000000   -0.000000   -0.000000    0.000000   -0.000000    0.000653
   -2   -2    2    4   14   -0.000000   -0.000115    0.000338   -0.000000   -0.000000   -0.000000
   -2   -2    2    5   14   -0.000000   -0.000000    0.000652   -0.000000   -0.000000   -0.000000
   -2   -2    2    6   14    0.000000    0.000000   -0.000000    0.000000   -0.000000    0.000652
   -2   -2    2    7   14   -0.000116    0.000000    0.000000   -0.000648   -0.000000   -0.000000
   -2   -2    2    8   14   -0.000000   -0.000000    0.000000    0.000000    0.000332    0.000000
   -2   -2    2    9   14   -0.000000   -0.000000    0.000000   -0.000000    0.000000   -0.000000
   -2   -2    2   10   14   -0.000000    0.000000    0.000000    0.000000   -0.000000    0.000000
   -2   -2    2   11   14    0.000000    0.000000    0.000000   -0.000000   -0.000000   -0.000000
   -2   -2    2   12   14    0.000000    0.000000    0.000000   -0.000000   -0.000000    0.000000
   -2   -2    2   13   14    0.000000   -0.000000   -0.000000   -0.000000    0.000000   -0.000000
   -2   -2    2   14   14   -0.000000   -0.000000    0.000000    0.000000   -0.000000    0.000000
   -2   -2    2   15   14    0.000000    0.000000   -0.000000   -0.000000    0.000000   -0.000000
   -2   -2    2   16   14    0.000000   -0.000000   -0.000000    0.000000    0.000000    0.000000
   -2   -2    2   17   14   -0.000000    0.000000   -0.000000   -0.000000    0.000000    0.000000
   -2   -2    2   18   14   -0.000000   -0.000000    0.000000   -0.000000    0.000000   -0.000000
   -2   -2    2    1   15    0.000000    0.000000   -0.000000    0.000000   -0.000000   -0.000000
   -2   -2    2    2   15   -0.000000    0.000000   -0.000000    0.000000    0.000000    0.000000
   -2   -2    2    3   15    0.000000   -0.000000   -0.000000   -0.000000   -0.000000    0.000000
   -2   -2    2    4   15   -0.000354   -0.000000    0.000000    0.000354   -0.000000   -0.000000
   -2   -2    2    5   15    0.001028    0.000000    0.000000   -0.000166   -0.000000   -0.000000
   -2   -2    2    6   15   -0.000000   -0.000000    0.000000   -0.000000    0.000187    0.000000
   -2   -2    2    7   15   -0.000000   -0.000166   -0.001028   -0.000000    0.000000   -0.000000
   -2   -2    2    8   15   -0.000000    0.000000   -0.000000    0.000000    0.000000   -0.000187
   -2   -2    2    9   15   -0.000000   -0.000000    0.000000    0.000000   -0.000000   -0.000000
   -2   -2    2   10   15    0.000000   -0.000000   -0.000000    0.000000   -0.000000   -0.000000
   -2   -2    2   11   15    0.000000    0.000000   -0.000000    0.000000   -0.000000   -0.000000
   -2   -2    2   12   15    0.000000   -0.000000   -0.000000    0.000000   -0.000000    0.000000
   -2   -2    2   13   15   -0.000000   -0.000000   -0.000000   -0.000000    0.000000    0.000000
   -2   -2    2   14   15   -0.000000    0.000000    0.000000   -0.000000   -0.000000   -0.000000
   -2   -2    2   15   15    0.000000    0.000000    0.000000    0.000000    0.000000   -0.000000
   -2   -2    2   16   15   -0.000000    0.000000    0.000000    0.000000    0.000000    0.000000
   -2   -2    2   17   15    0.000000   -0.000000   -0.000000   -0.000000    0.000000    0.000000
   -2   -2    2   18   15   -0.000000   -0.000000    0.000000   -0.000000    0.000000    0.000000
   -2   -2    2    1   16    0.000000   -0.000000    0.000000   -0.000000   -0.000000   -0.000000
   -2   -2    2    2   16   -0.000000    0.000000   -0.000000   -0.000000    0.000000   -0.000000
   -2   -2    2    3   16    0.000354   -0.000000    0.000000    0.000354    0.000000   -0.000000
   -2   -2    2    4   16   -0.000000    0.000000    0.000000    0.000000    0.000000   -0.000000
   -2   -2    2    5   16   -0.000000    0.000000    0.000000    0.000000   -0.000187    0.000000
   -2   -2    2    6   16    0.001028    0.000000    0.000000    0.000166   -0.000000   -0.000000
   -2   -2    2    7   16    0.000000    0.000000   -0.000000    0.000000   -0.000000   -0.000187
   -2   -2    2    8   16    0.000000    0.000166   -0.001028    0.000000   -0.000000   -0.000000
   -2   -2    2    9   16    0.000000    0.000000   -0.000000    0.000000   -0.000000   -0.000000
   -2   -2    2   10   16    0.000000    0.000000    0.000000   -0.000000   -0.000000    0.000000
   -2   -2    2   11   16   -0.000000    0.000000   -0.000000   -0.000000   -0.000000   -0.000000
   -2   -2    2   12   16    0.000000   -0.000000    0.000000   -0.000000   -0.000000    0.000000
   -2   -2    2   13   16    0.000000   -0.000000    0.000000   -0.000000   -0.000000    0.000000
   -2   -2    2   14   16   -0.000000   -0.000000    0.000000    0.000000   -0.000000    0.000000
   -2   -2    2   15   16    0.000000    0.000000   -0.000000    0.000000   -0.000000    0.000000
   -2   -2    2   16   16    0.000000   -0.000000   -0.000000   -0.000000    0.000000    0.000000
   -2   -2    2   17   16    0.000000   -0.000000    0.000000   -0.000000   -0.000000    0.000000
   -2   -2    2   18   16   -0.000000    0.000000   -0.000000   -0.000000   -0.000000   -0.000000
   -2   -2    2    1   17   -0.000000    0.000000    0.000000   -0.000000   -0.000000    0.000000
   -2   -2    2    2   17    0.000000    0.000000    0.000000    0.000000    0.000000    0.000000
   -2   -2    2    3   17   -0.000000    0.000000    0.000000   -0.000000    0.000000    0.000000
   -2   -2    2    4   17   -0.000000    0.000653    0.000653    0.000000    0.000000    0.000000
   -2   -2    2    5   17   -0.000000   -0.000650    0.000334   -0.000000   -0.000000   -0.000000
   -2   -2    2    6   17    0.000000    0.000000   -0.000000   -0.000000   -0.000000   -0.000116
   -2   -2    2    7   17    0.000334   -0.000000    0.000000    0.000650    0.000000   -0.000000
   -2   -2    2    8   17    0.000000   -0.000000   -0.000000    0.000000   -0.000116   -0.000000
   -2   -2    2    9   17    0.000000   -0.000000    0.000000    0.000000    0.000000    0.000000
   -2   -2    2   10   17   -0.000000    0.000000    0.000000    0.000000   -0.000000   -0.000000
   -2   -2    2   11   17    0.000000    0.000000   -0.000000   -0.000000    0.000000   -0.000000
   -2   -2    2   12   17    0.000000    0.000000    0.000000    0.000000   -0.000000   -0.000000
   -2   -2    2   13   17   -0.000000    0.000000    0.000000   -0.000000   -0.000000    0.000000
   -2   -2    2   14   17    0.000000    0.000000    0.000000   -0.000000   -0.000000    0.000000
   -2   -2    2   15   17   -0.000000   -0.000000    0.000000   -0.000000   -0.000000    0.000000
   -2   -2    2   16   17   -0.000000   -0.000000   -0.000000   -0.000000    0.000000    0.000000
   -2   -2    2   17   17    0.000000   -0.000000    0.000000   -0.000000    0.000000    0.000000
   -2   -2    2   18   17   -0.000000   -0.000000   -0.000000    0.000000    0.000000   -0.000000
   -2   -2    2    1   18    0.000000   -0.000000   -0.000000    0.000000    0.000000    0.000000
   -2   -2    2    2   18    0.000000   -0.000000   -0.000000   -0.000000   -0.000000    0.000000
   -2   -2    2    3   18    0.000000    0.000653   -0.000653   -0.000000   -0.000000   -0.000000
   -2   -2    2    4   18    0.000000   -0.000000   -0.000000    0.000000    0.000000   -0.000000
   -2   -2    2    5   18   -0.000000    0.000000   -0.000000    0.000000   -0.000000   -0.000116
   -2   -2    2    6   18   -0.000000    0.000650    0.000334   -0.000000    0.000000    0.000000
   -2   -2    2    7   18    0.000000    0.000000    0.000000   -0.000000    0.000116   -0.000000
   -2   -2    2    8   18    0.000334   -0.000000   -0.000000   -0.000650   -0.000000   -0.000000
   -2   -2    2    9   18   -0.000000   -0.000000   -0.000000   -0.000000   -0.000000   -0.000000
   -2   -2    2   10   18    0.000000    0.000000    0.000000    0.000000    0.000000    0.000000
   -2   -2    2   11   18   -0.000000    0.000000   -0.000000   -0.000000   -0.000000   -0.000000
   -2   -2    2   12   18    0.000000    0.000000    0.000000    0.000000    0.000000    0.000000
   -2   -2    2   13   18    0.000000    0.000000    0.000000    0.000000   -0.000000    0.000000
   -2   -2    2   14   18    0.000000   -0.000000   -0.000000   -0.000000   -0.000000   -0.000000
   -2   -2    2   15   18    0.000000   -0.000000   -0.000000   -0.000000   -0.000000    0.000000
   -2   -2    2   16   18    0.000000    0.000000    0.000000   -0.000000    0.000000   -0.000000
   -2   -2    2   17   18    0.000000   -0.000000    0.000000    0.000000   -0.000000   -0.000000
   -2   -2    2   18   18    0.000000    0.000000   -0.000000    0.000000    0.000000   -0.000000
   -2   -1    1    1    1    0.000000    0.000000    0.000000    0.000079    0.000000    0.000000
   -2   -1    1    2    1   -0.000000   -0.000000   -0.000000   -0.000056   -0.000000    0.000000
   -2   -1    1    3    1    0.001206    0.000000    0.000000    0.000068    0.001660    0.000000
   -2   -1    1    4    1   -0.000276   -0.000000   -0.000000    0.000049   -0.000784    0.000000
   -2   -1    1    5    1    0.001630   -0.000000   -0.000000   -0.000048    0.001239    0.000000
   -2   -1    1    6    1    0.000788   -0.000000   -0.000000   -0.000068    0.000272   -0.000000
   -2   -1    1    7    1    0.000000   -0.000225    0.000505    0.000000   -0.000000    0.000034
   -2   -1    1    8    1   -0.000000   -0.000036    0.000000    0.000000   -0.000000    0.000227
   -2   -1    1    9    1   -0.001048   -0.000000   -0.000000   -0.000016    0.000160    0.000000
   -2   -1    1   10    1   -0.000113   -0.000000   -0.000000    0.000011    0.000197    0.000000
   -2   -1    1   11    1    0.000961    0.000000   -0.000000   -0.000098    0.000961    0.000000
   -2   -1    1   12    1   -0.000110   -0.000000    0.000000    0.000098    0.000109    0.000000
   -2   -1    1   13    1   -0.000000   -0.000098   -0.000579   -0.000000   -0.000000    0.000090
   -2   -1    1   14    1    0.000000    0.000284   -0.000045   -0.000000    0.000000   -0.000264
   -2   -1    1   15    1   -0.000397   -0.000000   -0.000000   -0.000025   -0.001037   -0.000000
   -2   -1    1   16    1   -0.000300   -0.000000   -0.000000    0.000029    0.000259   -0.000000
   -2   -1    1   17    1    0.000000    0.000263   -0.000581   -0.000000   -0.000000   -0.000286
   -2   -1    1   18    1   -0.000000   -0.000090    0.000045    0.000000    0.000000    0.000099
   -2   -1    1    1    2    0.000000    0.000000    0.000000   -0.000056    0.000000   -0.000000
   -2   -1    1    2    2   -0.000000   -0.000000   -0.000000   -0.000079   -0.000000   -0.000000
   -2   -1    1    3    2    0.000276   -0.000000    0.000000    0.000049    0.000784    0.000000
   -2   -1    1    4    2    0.001206   -0.000000   -0.000000   -0.000068    0.001660    0.000000
   -2   -1    1    5    2   -0.000788   -0.000000    0.000000   -0.000068   -0.000272    0.000000
   -2   -1    1    6    2    0.001630    0.000000    0.000000    0.000048    0.001239   -0.000000
   -2   -1    1    7    2    0.000000   -0.000036   -0.000000    0.000000    0.000000    0.000227
   -2   -1    1    8    2    0.000000    0.000225    0.000505   -0.000000   -0.000000   -0.000034
   -2   -1    1    9    2    0.000113   -0.000000    0.000000    0.000011   -0.000197   -0.000000
   -2   -1    1   10    2   -0.001048   -0.000000   -0.000000    0.000016    0.000160    0.000000
   -2   -1    1   11    2    0.000110    0.000000   -0.000000    0.000098   -0.000109   -0.000000
   -2   -1    1   12    2    0.000961    0.000000   -0.000000    0.000098    0.000961   -0.000000
   -2   -1    1   13    2   -0.000000    0.000284    0.000045   -0.000000   -0.000000   -0.000264
   -2   -1    1   14    2   -0.000000    0.000098   -0.000579    0.000000    0.000000   -0.000090
   -2   -1    1   15    2    0.000300   -0.000000    0.000000    0.000029   -0.000259   -0.000000
   -2   -1    1   16    2   -0.000397    0.000000    0.000000    0.000025   -0.001037   -0.000000
   -2   -1    1   17    2    0.000000   -0.000090   -0.000045    0.000000   -0.000000    0.000099
   -2   -1    1   18    2    0.000000   -0.000263   -0.000581   -0.000000   -0.000000    0.000286
   -2   -1    1    1    3    0.001789   -0.000000   -0.000000    0.000337    0.001336   -0.000000
   -2   -1    1    2    3    0.000393   -0.000000   -0.000000    0.000355   -0.000115    0.000000
   -2   -1    1    3    3    0.000000    0.000000   -0.000000   -0.000072    0.000000    0.000000
   -2   -1    1    4    3   -0.000246   -0.000000   -0.000000   -0.000224   -0.000246   -0.000000
   -2   -1    1    5    3    0.002242   -0.000000   -0.000000    0.000402    0.002309   -0.000000
   -2   -1    1    6    3   -0.000068    0.000000    0.000000    0.000275   -0.000074    0.000000
   -2   -1    1    7    3    0.000000    0.000041    0.003637   -0.000000    0.000000    0.000488
   -2   -1    1    8    3    0.000000    0.000167   -0.000513    0.000000    0.000000    0.000649
   -2   -1    1    9    3   -0.000625   -0.000000    0.000000    0.000000    0.000557    0.000000
   -2   -1    1   10    3   -0.000074    0.000000    0.000000   -0.000088   -0.000067    0.000000
   -2   -1    1   11    3    0.000074    0.000000   -0.000000    0.000012   -0.002587   -0.000000
   -2   -1    1   12    3   -0.000304   -0.000000    0.000000   -0.000049   -0.000065    0.000000
   -2   -1    1   13    3    0.000000    0.000031    0.000041   -0.000000    0.000000    0.000068
   -2   -1    1   14    3    0.000000    0.000266   -0.000183   -0.000000   -0.000000   -0.000034
   -2   -1    1   15    3    0.000493    0.000000    0.000000   -0.000023   -0.000185    0.000000
   -2   -1    1   16    3    0.000064   -0.000000    0.000000   -0.000051   -0.000024    0.000000
   -2   -1    1   17    3    0.000000   -0.000123    0.000184   -0.000000    0.000000   -0.000123
   -2   -1    1   18    3   -0.000000    0.000154    0.000056   -0.000000    0.000000   -0.000137
   -2   -1    1    1    4   -0.000393   -0.000000    0.000000    0.000355    0.000115   -0.000000
   -2   -1    1    2    4    0.001789   -0.000000    0.000000   -0.000337    0.001336   -0.000000
   -2   -1    1    3    4    0.000246   -0.000000    0.000000   -0.000224    0.000246   -0.000000
   -2   -1    1    4    4    0.000000   -0.000000    0.000000    0.000072    0.000000   -0.000000
   -2   -1    1    5    4    0.000068    0.000000   -0.000000    0.000275    0.000074   -0.000000
   -2   -1    1    6    4    0.002242   -0.000000    0.000000   -0.000402    0.002309   -0.000000
   -2   -1    1    7    4   -0.000000    0.000167    0.000513   -0.000000   -0.000000    0.000649
   -2   -1    1    8    4   -0.000000   -0.000041    0.003637   -0.000000   -0.000000   -0.000488
   -2   -1    1    9    4    0.000074    0.000000    0.000000   -0.000088    0.000067    0.000000
   -2   -1    1   10    4   -0.000625   -0.000000   -0.000000   -0.000000    0.000557    0.000000
   -2   -1    1   11    4    0.000304    0.000000   -0.000000   -0.000049    0.000065   -0.000000
   -2   -1    1   12    4    0.000074   -0.000000    0.000000   -0.000012   -0.002587    0.000000
   -2   -1    1   13    4    0.000000    0.000266    0.000183    0.000000    0.000000   -0.000034
   -2   -1    1   14    4   -0.000000   -0.000031    0.000041    0.000000    0.000000   -0.000068
   -2   -1    1   15    4   -0.000064   -0.000000   -0.000000   -0.000051    0.000024    0.000000
   -2   -1    1   16    4    0.000493    0.000000   -0.000000    0.000023   -0.000185    0.000000
   -2   -1    1   17    4    0.000000    0.000154   -0.000056    0.000000    0.000000   -0.000137
   -2   -1    1   18    4    0.000000    0.000123    0.000184    0.000000    0.000000    0.000123
   -2   -1    1    1    5    0.001377   -0.000000    0.000000   -0.000353    0.001769   -0.000000
   -2   -1    1    2    5    0.000115    0.000000    0.000000   -0.000335   -0.000400    0.000000
   -2   -1    1    3    5    0.002202   -0.000000    0.000000   -0.000272    0.002269   -0.000000
   -2   -1    1    4    5    0.000068    0.000000    0.000000   -0.000404    0.000074    0.000000
   -2   -1    1    5    5   -0.000000    0.000000    0.000000    0.000356   -0.000000    0.000000
   -2   -1    1    6    5    0.000248    0.000000   -0.000000    0.000060    0.000248    0.000000
   -2   -1    1    7    5   -0.000000   -0.000648    0.003654   -0.000000   -0.000000   -0.000168
   -2   -1    1    8    5    0.000000   -0.000486    0.000512   -0.000000    0.000000   -0.000042
   -2   -1    1    9    5   -0.000564    0.000000    0.000000   -0.000003    0.000653   -0.000000
   -2   -1    1   10    5   -0.000020    0.000000   -0.000000    0.000021   -0.000107    0.000000
   -2   -1    1   11    5   -0.002581   -0.000000    0.000000    0.000049    0.000072    0.000000
   -2   -1    1   12    5    0.000066   -0.000000    0.000000   -0.000012    0.000302    0.000000
   -2   -1    1   13    5    0.000000    0.000137    0.000187    0.000000    0.000000   -0.000153
   -2   -1    1   14    5    0.000000    0.000125   -0.000057    0.000000    0.000000    0.000122
   -2   -1    1   15    5    0.000483    0.000000   -0.000000    0.000100   -0.000127   -0.000000
   -2   -1    1   16    5    0.000069    0.000000   -0.000000    0.000011    0.000032   -0.000000
   -2   -1    1   17    5   -0.000000    0.000033    0.000026   -0.000000    0.000000   -0.000265
   -2   -1    1   18    5    0.000000   -0.000068    0.000183    0.000000    0.000000   -0.000031
   -2   -1    1    1    6   -0.000115    0.000000    0.000000   -0.000335    0.000400   -0.000000
   -2   -1    1    2    6    0.001377    0.000000    0.000000    0.000353    0.001769   -0.000000
   -2   -1    1    3    6   -0.000068    0.000000    0.000000   -0.000404   -0.000074    0.000000
   -2   -1    1    4    6    0.002202    0.000000   -0.000000    0.000272    0.002269    0.000000
   -2   -1    1    5    6   -0.000248   -0.000000    0.000000    0.000060   -0.000248   -0.000000
   -2   -1    1    6    6    0.000000    0.000000    0.000000   -0.000356    0.000000    0.000000
   -2   -1    1    7    6   -0.000000   -0.000486   -0.000512    0.000000   -0.000000   -0.000042
   -2   -1    1    8    6    0.000000    0.000648    0.003654   -0.000000    0.000000    0.000168
   -2   -1    1    9    6    0.000020    0.000000    0.000000    0.000021    0.000107   -0.000000
   -2   -1    1   10    6   -0.000564    0.000000   -0.000000    0.000003    0.000653   -0.000000
   -2   -1    1   11    6   -0.000066   -0.000000    0.000000   -0.000012   -0.000302    0.000000
   -2   -1    1   12    6   -0.002581   -0.000000   -0.000000   -0.000049    0.000072    0.000000
   -2   -1    1   13    6    0.000000    0.000125    0.000057   -0.000000    0.000000    0.000122
   -2   -1    1   14    6   -0.000000   -0.000137    0.000187    0.000000   -0.000000    0.000153
   -2   -1    1   15    6   -0.000069   -0.000000   -0.000000    0.000011   -0.000032    0.000000
   -2   -1    1   16    6    0.000483    0.000000   -0.000000   -0.000100   -0.000127   -0.000000
   -2   -1    1   17    6   -0.000000   -0.000068   -0.000183   -0.000000   -0.000000   -0.000031
   -2   -1    1   18    6   -0.000000   -0.000033    0.000026   -0.000000   -0.000000    0.000265
   -2   -1    1    1    7   -0.000000   -0.000099   -0.003590    0.000000   -0.000000    0.000160
   -2   -1    1    2    7   -0.000000   -0.000161    0.000000    0.000000   -0.000000    0.000101
   -2   -1    1    3    7   -0.000000    0.000209    0.004047   -0.000000   -0.000000   -0.000238
   -2   -1    1    4    7    0.000000    0.000164    0.000638   -0.000000    0.000000   -0.000319
   -2   -1    1    5    7    0.000000    0.000316    0.004047   -0.000000    0.000000   -0.000164
   -2   -1    1    6    7    0.000000    0.000238   -0.000639    0.000000    0.000000   -0.000206
   -2   -1    1    7    7   -0.000000   -0.000000   -0.000000   -0.000140   -0.000000   -0.000000
   -2   -1    1    8    7   -0.000001   -0.000000   -0.000000    0.000038   -0.000001   -0.000000
   -2   -1    1    9    7    0.000000   -0.000280   -0.000205   -0.000000   -0.000000    0.000119
   -2   -1    1   10    7    0.000000    0.000150    0.000153   -0.000000   -0.000000   -0.000322
   -2   -1    1   11    7   -0.000000   -0.000195    0.000847   -0.000000    0.000000    0.000177
   -2   -1    1   12    7    0.000000   -0.000177    0.000000   -0.000000   -0.000000    0.000194
   -2   -1    1   13    7    0.000815    0.000000    0.000000   -0.000301   -0.000714    0.000000
   -2   -1    1   14    7   -0.000064    0.000000   -0.000000    0.000034    0.000055    0.000000
   -2   -1    1   15    7    0.000000    0.000206   -0.000517   -0.000000   -0.000000   -0.000105
   -2   -1    1   16    7   -0.000000   -0.000052   -0.000090    0.000000    0.000000    0.000134
   -2   -1    1   17    7   -0.000717    0.000000   -0.000000   -0.000033    0.000815   -0.000000
   -2   -1    1   18    7   -0.000055    0.000000   -0.000000    0.000301    0.000065   -0.000000
   -2   -1    1    1    8   -0.000000   -0.000161   -0.000000    0.000000   -0.000000    0.000101
   -2   -1    1    2    8    0.000000    0.000099   -0.003590   -0.000000   -0.000000   -0.000160
   -2   -1    1    3    8   -0.000000    0.000164   -0.000638    0.000000   -0.000000   -0.000319
   -2   -1    1    4    8    0.000000   -0.000209    0.004047   -0.000000    0.000000    0.000238
   -2   -1    1    5    8    0.000000    0.000238    0.000639    0.000000   -0.000000   -0.000206
   -2   -1    1    6    8   -0.000000   -0.000316    0.004047   -0.000000   -0.000000    0.000164
   -2   -1    1    7    8    0.000001   -0.000000   -0.000000    0.000038    0.000001   -0.000000
   -2   -1    1    8    8   -0.000000    0.000000    0.000000    0.000140   -0.000000    0.000000
   -2   -1    1    9    8   -0.000000    0.000150   -0.000153   -0.000000    0.000000   -0.000322
   -2   -1    1   10    8    0.000000    0.000280   -0.000205    0.000000    0.000000   -0.000119
   -2   -1    1   11    8   -0.000000   -0.000177   -0.000000    0.000000    0.000000    0.000194
   -2   -1    1   12    8    0.000000    0.000195    0.000847   -0.000000   -0.000000   -0.000177
   -2   -1    1   13    8    0.000064   -0.000000    0.000000    0.000034   -0.000055    0.000000
   -2   -1    1   14    8    0.000815   -0.000000   -0.000000    0.000301   -0.000714    0.000000
   -2   -1    1   15    8    0.000000   -0.000052    0.000090   -0.000000   -0.000000    0.000134
   -2   -1    1   16    8   -0.000000   -0.000206   -0.000517    0.000000    0.000000    0.000105
   -2   -1    1   17    8    0.000055    0.000000    0.000000    0.000301   -0.000065   -0.000000
   -2   -1    1   18    8   -0.000717    0.000000    0.000000    0.000033    0.000815    0.000000
   -2   -1    1    1    9   -0.000347    0.000000    0.000000    0.000154    0.000861    0.000000
   -2   -1    1    2    9   -0.000138    0.000000    0.000000    0.000126   -0.000448    0.000000
   -2   -1    1    3    9    0.000941   -0.000000   -0.000000    0.000026   -0.000241   -0.000000
   -2   -1    1    4    9    0.000128    0.000000    0.000000   -0.000241    0.000135    0.000000
   -2   -1    1    5    9    0.000760    0.000000   -0.000000   -0.000073   -0.000457    0.000000
   -2   -1    1    6    9    0.000104    0.000000   -0.000000    0.000004    0.000017   -0.000000
   -2   -1    1    7    9   -0.000000    0.000047    0.000300   -0.000000   -0.000000    0.000446
   -2   -1    1    8    9    0.000000    0.000314    0.000094    0.000000   -0.000000   -0.000158
   -2   -1    1    9    9    0.000000    0.000000    0.000000    0.000016    0.000000    0.000000
   -2   -1    1   10    9   -0.000063    0.000000   -0.000000   -0.000000   -0.000063    0.000000
   -2   -1    1   11    9    0.000599   -0.000000    0.000000   -0.000100   -0.000364    0.000000
   -2   -1    1   12    9    0.000098   -0.000000    0.000000    0.000056    0.000339   -0.000000
   -2   -1    1   13    9    0.000000    0.000034   -0.000048    0.000000   -0.000000   -0.000064
   -2   -1    1   14    9    0.000000    0.000136    0.000002   -0.000000    0.000000   -0.000026
   -2   -1    1   15    9    0.000006    0.000000   -0.000000    0.000016   -0.000074   -0.000000
   -2   -1    1   16    9   -0.000055    0.000000    0.000000   -0.000020   -0.000053   -0.000000
   -2   -1    1   17    9   -0.000000   -0.000047   -0.000286    0.000000    0.000000    0.000189
   -2   -1    1   18    9    0.000000   -0.000051   -0.000105    0.000000   -0.000000    0.000022
   -2   -1    1    1   10    0.000138   -0.000000   -0.000000    0.000126    0.000448    0.000000
   -2   -1    1    2   10   -0.000347   -0.000000   -0.000000   -0.000154    0.000861   -0.000000
   -2   -1    1    3   10   -0.000128    0.000000   -0.000000   -0.000241   -0.000135    0.000000
   -2   -1    1    4   10    0.000941   -0.000000   -0.000000   -0.000026   -0.000241    0.000000
   -2   -1    1    5   10   -0.000104   -0.000000    0.000000    0.000004   -0.000017    0.000000
[...]
    3   -1   -1   13    7    0.000000    0.000000   -0.000000    0.000000    0.001553    0.000000
    3   -1   -1   14    7    0.000264    0.000000   -0.000000   -0.000336   -0.000000    0.000000
    3   -1   -1   15    7    0.000000   -0.000013    0.001808   -0.000000    0.000000   -0.000000
    3   -1   -1   16    7   -0.000000   -0.000000   -0.000000   -0.000000    0.000000    0.000014
    3   -1   -1   17    7    0.001549    0.000000   -0.000000    0.000336    0.000000   -0.000000
    3   -1   -1   18    7   -0.000000    0.000000   -0.000000   -0.000000   -0.000264    0.000000
    3   -1   -1    1    8   -0.000000   -0.000000    0.000000   -0.000000   -0.000000    0.000685
    3   -1   -1    2    8    0.000000    0.000685    0.002204    0.000000    0.000000   -0.000000
    3   -1   -1    3    8    0.000000   -0.000000   -0.000000    0.000000   -0.000373    0.000000
    3   -1   -1    4    8    0.002415   -0.000000    0.000000    0.000730    0.000000   -0.000000
    3   -1   -1    5    8    0.000377    0.000000    0.000000    0.000729    0.000000   -0.000000
    3   -1   -1    6    8    0.000000    0.000000    0.000000   -0.000000    0.002317   -0.000000
    3   -1   -1    7    8   -0.000000   -0.000511    0.000001    0.000000   -0.000000    0.000000
    3   -1   -1    8    8   -0.000000   -0.000000    0.000000    0.000000   -0.000000   -0.000806
    3   -1   -1    9    8    0.000000   -0.000000    0.000000    0.000000    0.000000    0.000005
    3   -1   -1   10    8    0.000000    0.000004    0.000996   -0.000000    0.000000    0.000000
    3   -1   -1   11    8    0.000000    0.000305   -0.000002    0.000000   -0.000000    0.000000
    3   -1   -1   12    8    0.000000   -0.000000    0.000000   -0.000000    0.000000    0.000306
    3   -1   -1   13    8   -0.000264   -0.000000    0.000000   -0.000336   -0.000000   -0.000000
    3   -1   -1   14    8   -0.000000   -0.000000    0.000000    0.000000    0.001553   -0.000000
    3   -1   -1   15    8   -0.000000    0.000000   -0.000000   -0.000000   -0.000000    0.000014
    3   -1   -1   16    8    0.000000    0.000013    0.001808    0.000000   -0.000000   -0.000000
    3   -1   -1   17    8   -0.000000   -0.000000   -0.000000   -0.000000    0.000264   -0.000000
    3   -1   -1   18    8    0.001549   -0.000000    0.000000   -0.000336   -0.000000   -0.000000
    3   -1   -1    1    9   -0.000000    0.000000   -0.000000   -0.000000    0.000000   -0.000000
    3   -1   -1    2    9   -0.000000    0.000360    0.000360    0.000000    0.000000    0.000000
    3   -1   -1    3    9    0.000000   -0.000000   -0.000000    0.000000    0.004451    0.000000
    3   -1   -1    4    9    0.000604   -0.000000    0.000000    0.000604    0.000000    0.000000
    3   -1   -1    5    9   -0.002228    0.000000    0.000000   -0.000099    0.000000    0.000000
    3   -1   -1    6    9   -0.000000    0.000000   -0.000000    0.000000    0.000700   -0.000000
    3   -1   -1    7    9   -0.000000    0.000099   -0.002228   -0.000000   -0.000000   -0.000000
    3   -1   -1    8    9    0.000000   -0.000000   -0.000000    0.000000   -0.000000    0.000700
    3   -1   -1    9    9    0.000000   -0.000000   -0.000000   -0.000000    0.000000    0.000000
    3   -1   -1   10    9    0.000000    0.000009    0.000009   -0.000000   -0.000000    0.000000
    3   -1   -1   11    9    0.000000   -0.000024   -0.000118    0.000000   -0.000000   -0.000000
    3   -1   -1   12    9    0.000000   -0.000000    0.000000   -0.000000   -0.000000    0.000003
    3   -1   -1   13    9   -0.000118    0.000000   -0.000000    0.000024   -0.000000    0.000000
    3   -1   -1   14    9   -0.000000   -0.000000    0.000000    0.000000    0.000003    0.000000
    3   -1   -1   15    9    0.000000   -0.000000   -0.000000   -0.000000   -0.000000    0.000023
    3   -1   -1   16    9    0.000000    0.000008   -0.000008    0.000000    0.000000    0.000000
    3   -1   -1   17    9    0.000000   -0.000000   -0.000000   -0.000000    0.000332    0.000000
    3   -1   -1   18    9    0.000029    0.000000    0.000000    0.000029    0.000000   -0.000000
    3   -1   -1    1   10    0.000000    0.000360   -0.000360    0.000000   -0.000000    0.000000
    3   -1   -1    2   10    0.000000    0.000000    0.000000    0.000000   -0.000000    0.000000
    3   -1   -1    3   10   -0.000604   -0.000000   -0.000000    0.000604   -0.000000   -0.000000
    3   -1   -1    4   10    0.000000   -0.000000    0.000000   -0.000000    0.004451    0.000000
    3   -1   -1    5   10    0.000000   -0.000000    0.000000    0.000000   -0.000700   -0.000000
    3   -1   -1    6   10   -0.002228    0.000000    0.000000    0.000099    0.000000   -0.000000
    3   -1   -1    7   10   -0.000000    0.000000   -0.000000   -0.000000    0.000000    0.000700
    3   -1   -1    8   10    0.000000   -0.000099   -0.002228    0.000000   -0.000000    0.000000
    3   -1   -1    9   10    0.000000    0.000009   -0.000009    0.000000   -0.000000   -0.000000
    3   -1   -1   10   10    0.000000   -0.000000   -0.000000   -0.000000   -0.000000   -0.000000
    3   -1   -1   11   10    0.000000    0.000000   -0.000000    0.000000   -0.000000    0.000003
    3   -1   -1   12   10    0.000000    0.000024   -0.000118    0.000000   -0.000000    0.000000
    3   -1   -1   13   10   -0.000000   -0.000000    0.000000    0.000000   -0.000003   -0.000000
    3   -1   -1   14   10   -0.000118   -0.000000    0.000000   -0.000024   -0.000000    0.000000
    3   -1   -1   15   10    0.000000    0.000008    0.000008   -0.000000   -0.000000   -0.000000
    3   -1   -1   16   10   -0.000000    0.000000   -0.000000   -0.000000   -0.000000   -0.000023
    3   -1   -1   17   10   -0.000029   -0.000000    0.000000    0.000029    0.000000    0.000000
    3   -1   -1   18   10    0.000000    0.000000    0.000000   -0.000000    0.000332    0.000000
    3   -1   -1    1   11   -0.000000   -0.000396   -0.002152   -0.000000   -0.000000    0.000000
    3   -1   -1    2   11    0.000000   -0.000000    0.000000   -0.000000   -0.000000    0.000396
    3   -1   -1    3   11   -0.003124    0.000000   -0.000000   -0.000019    0.000000   -0.000000
    3   -1   -1    4   11    0.000000    0.000000   -0.000000    0.000000    0.000859   -0.000000
    3   -1   -1    5   11   -0.000000   -0.000000   -0.000000    0.000000   -0.003153    0.000000
    3   -1   -1    6   11   -0.000861    0.000000   -0.000000    0.000019   -0.000000    0.000000
    3   -1   -1    7   11    0.000000   -0.000000    0.000000    0.000000   -0.000000    0.000406
    3   -1   -1    8   11    0.000000   -0.000406   -0.000000    0.000000   -0.000000    0.000000
    3   -1   -1    9   11   -0.000000    0.000006    0.000030    0.000000    0.000000   -0.000000
    3   -1   -1   10   11    0.000000   -0.000000    0.000000    0.000000   -0.000000   -0.000023
    3   -1   -1   11   11    0.000000   -0.000000   -0.000000    0.000000    0.000000   -0.000086
    3   -1   -1   12   11    0.000000    0.000080   -0.000001    0.000000   -0.000000    0.000000
    3   -1   -1   13   11   -0.000000    0.000000   -0.000000    0.000000   -0.000597    0.000000
    3   -1   -1   14   11   -0.000029    0.000000    0.000000    0.000055    0.000000   -0.000000
    3   -1   -1   15   11   -0.000000    0.000038   -0.000016   -0.000000   -0.000000    0.000000
    3   -1   -1   16   11    0.000000    0.000000   -0.000000    0.000000   -0.000000   -0.000027
    3   -1   -1   17   11   -0.000597    0.000000   -0.000000   -0.000055   -0.000000   -0.000000
    3   -1   -1   18   11    0.000000   -0.000000   -0.000000    0.000000    0.000030   -0.000000
    3   -1   -1    1   12    0.000000    0.000000   -0.000000    0.000000    0.000000    0.000396
    3   -1   -1    2   12    0.000000    0.000396   -0.002152    0.000000   -0.000000    0.000000
    3   -1   -1    3   12    0.000000    0.000000   -0.000000   -0.000000   -0.000859   -0.000000
    3   -1   -1    4   12   -0.003124   -0.000000    0.000000    0.000019   -0.000000    0.000000
    3   -1   -1    5   12    0.000861    0.000000    0.000000    0.000019   -0.000000   -0.000000
    3   -1   -1    6   12   -0.000000   -0.000000   -0.000000   -0.000000   -0.003153    0.000000
    3   -1   -1    7   12   -0.000000   -0.000406    0.000000    0.000000    0.000000   -0.000000
    3   -1   -1    8   12   -0.000000    0.000000    0.000000    0.000000   -0.000000   -0.000406
    3   -1   -1    9   12    0.000000   -0.000000   -0.000000   -0.000000    0.000000   -0.000023
    3   -1   -1   10   12   -0.000000   -0.000006    0.000030    0.000000    0.000000    0.000000
    3   -1   -1   11   12   -0.000000    0.000080    0.000001   -0.000000    0.000000   -0.000000
    3   -1   -1   12   12   -0.000000    0.000000    0.000000    0.000000   -0.000000    0.000086
    3   -1   -1   13   12    0.000029    0.000000   -0.000000    0.000055    0.000000    0.000000
    3   -1   -1   14   12    0.000000    0.000000    0.000000    0.000000   -0.000597   -0.000000
    3   -1   -1   15   12    0.000000    0.000000    0.000000   -0.000000   -0.000000   -0.000027
    3   -1   -1   16   12   -0.000000   -0.000038   -0.000016    0.000000   -0.000000    0.000000
    3   -1   -1   17   12    0.000000    0.000000    0.000000   -0.000000   -0.000030   -0.000000
    3   -1   -1   18   12   -0.000597    0.000000    0.000000    0.000055    0.000000   -0.000000
    3   -1   -1    1   13   -0.002152   -0.000000   -0.000000    0.000396   -0.000000   -0.000000
    3   -1   -1    2   13    0.000000    0.000000   -0.000000    0.000000    0.000396    0.000000
    3   -1   -1    3   13   -0.000000    0.000019   -0.003124   -0.000000    0.000000    0.000000
    3   -1   -1    4   13   -0.000000   -0.000000    0.000000    0.000000   -0.000000    0.000859
    3   -1   -1    5   13   -0.000000   -0.000000    0.000000    0.000000   -0.000000   -0.000406
    3   -1   -1    6   13   -0.000000   -0.000000   -0.000406   -0.000000   -0.000000    0.000000
    3   -1   -1    7   13    0.000000    0.000000   -0.000000    0.000000   -0.003153   -0.000000
    3   -1   -1    8   13    0.000019    0.000000   -0.000000   -0.000861    0.000000    0.000000
    3   -1   -1    9   13    0.000030    0.000000   -0.000000   -0.000006   -0.000000   -0.000000
    3   -1   -1   10   13    0.000000    0.000000    0.000000   -0.000000   -0.000023   -0.000000
    3   -1   -1   11   13    0.000000    0.000000    0.000000   -0.000000   -0.000597    0.000000
    3   -1   -1   12   13    0.000055    0.000000    0.000000   -0.000029    0.000000   -0.000000
    3   -1   -1   13   13   -0.000000   -0.000000    0.000000   -0.000000   -0.000000    0.000086
    3   -1   -1   14   13    0.000000   -0.000001    0.000080    0.000000   -0.000000    0.000000
    3   -1   -1   15   13    0.000016   -0.000000    0.000000    0.000038   -0.000000   -0.000000
    3   -1   -1   16   13   -0.000000   -0.000000    0.000000   -0.000000    0.000027    0.000000
    3   -1   -1   17   13   -0.000000    0.000055   -0.000597   -0.000000   -0.000000   -0.000000
    3   -1   -1   18   13   -0.000000    0.000000   -0.000000    0.000000   -0.000000    0.000030
    3   -1   -1    1   14   -0.000000    0.000000    0.000000   -0.000000   -0.000396    0.000000
    3   -1   -1    2   14   -0.002152    0.000000    0.000000   -0.000396   -0.000000   -0.000000
    3   -1   -1    3   14   -0.000000   -0.000000   -0.000000   -0.000000   -0.000000    0.000859
    3   -1   -1    4   14    0.000000   -0.000019   -0.003124    0.000000   -0.000000   -0.000000
    3   -1   -1    5   14    0.000000   -0.000000    0.000406    0.000000   -0.000000   -0.000000
    3   -1   -1    6   14   -0.000000   -0.000000   -0.000000    0.000000    0.000000    0.000406
    3   -1   -1    7   14   -0.000019    0.000000    0.000000   -0.000861   -0.000000   -0.000000
    3   -1   -1    8   14    0.000000    0.000000    0.000000    0.000000   -0.003153   -0.000000
    3   -1   -1    9   14   -0.000000   -0.000000    0.000000   -0.000000    0.000023    0.000000
    3   -1   -1   10   14    0.000030    0.000000   -0.000000    0.000006   -0.000000   -0.000000
    3   -1   -1   11   14   -0.000055    0.000000    0.000000   -0.000029    0.000000    0.000000
    3   -1   -1   12   14    0.000000    0.000000   -0.000000   -0.000000   -0.000597   -0.000000
    3   -1   -1   13   14   -0.000000   -0.000001   -0.000080   -0.000000   -0.000000    0.000000
    3   -1   -1   14   14    0.000000    0.000000    0.000000    0.000000   -0.000000   -0.000086
    3   -1   -1   15   14    0.000000   -0.000000    0.000000    0.000000   -0.000027   -0.000000
    3   -1   -1   16   14    0.000016    0.000000    0.000000   -0.000038    0.000000    0.000000
    3   -1   -1   17   14    0.000000   -0.000000   -0.000000    0.000000   -0.000000    0.000030
    3   -1   -1   18   14    0.000000   -0.000055   -0.000597   -0.000000   -0.000000   -0.000000
    3   -1   -1    1   15   -0.000000   -0.000000    0.000000   -0.000000   -0.000000   -0.000413
    3   -1   -1    2   15    0.000000    0.000207   -0.000207   -0.000000    0.000000   -0.000000
    3   -1   -1    3   15    0.000000    0.000000   -0.000000    0.000000   -0.000000    0.000000
    3   -1   -1    4   15   -0.000461    0.000000    0.000000    0.000461    0.000000    0.000000
    3   -1   -1    5   15    0.003862    0.000000    0.000000   -0.000750   -0.000000   -0.000000
    3   -1   -1    6   15    0.000000   -0.000000    0.000000    0.000000   -0.000295    0.000000
    3   -1   -1    7   15   -0.000000   -0.000750   -0.003862   -0.000000    0.000000   -0.000000
    3   -1   -1    8   15   -0.000000    0.000000    0.000000   -0.000000    0.000000    0.000295
    3   -1   -1    9   15    0.000000   -0.000000   -0.000000   -0.000000   -0.000000   -0.000006
    3   -1   -1   10   15   -0.000000   -0.000017    0.000017    0.000000   -0.000000   -0.000000
    3   -1   -1   11   15    0.000000   -0.000020   -0.000263    0.000000   -0.000000    0.000000
    3   -1   -1   12   15    0.000000    0.000000    0.000000    0.000000    0.000000    0.000030
    3   -1   -1   13   15    0.000263    0.000000    0.000000   -0.000020   -0.000000   -0.000000
    3   -1   -1   14   15    0.000000   -0.000000    0.000000   -0.000000   -0.000030    0.000000
    3   -1   -1   15   15   -0.000000    0.000000    0.000000   -0.000000   -0.000000   -0.000000
    3   -1   -1   16   15    0.000000   -0.000009   -0.000009    0.000000    0.000000    0.000000
    3   -1   -1   17   15    0.000000   -0.000000    0.000000   -0.000000   -0.000000    0.000000
    3   -1   -1   18   15    0.000012   -0.000000   -0.000000   -0.000012    0.000000   -0.000000
    3   -1   -1    1   16    0.000000    0.000207    0.000207    0.000000    0.000000    0.000000
    3   -1   -1    2   16   -0.000000    0.000000    0.000000    0.000000    0.000000    0.000413
    3   -1   -1    3   16    0.000461   -0.000000   -0.000000    0.000461    0.000000    0.000000
    3   -1   -1    4   16   -0.000000    0.000000    0.000000    0.000000    0.000000   -0.000000
    3   -1   -1    5   16   -0.000000   -0.000000    0.000000    0.000000    0.000295    0.000000
    3   -1   -1    6   16    0.003862    0.000000    0.000000    0.000750   -0.000000   -0.000000
    3   -1   -1    7   16    0.000000    0.000000   -0.000000    0.000000   -0.000000    0.000295
    3   -1   -1    8   16   -0.000000    0.000750   -0.003862    0.000000   -0.000000   -0.000000
    3   -1   -1    9   16    0.000000   -0.000017   -0.000017    0.000000   -0.000000   -0.000000
    3   -1   -1   10   16   -0.000000    0.000000   -0.000000    0.000000   -0.000000    0.000006
    3   -1   -1   11   16   -0.000000    0.000000   -0.000000   -0.000000   -0.000000    0.000030
    3   -1   -1   12   16   -0.000000    0.000020   -0.000263    0.000000    0.000000    0.000000
    3   -1   -1   13   16    0.000000    0.000000   -0.000000    0.000000    0.000030    0.000000
    3   -1   -1   14   16    0.000263   -0.000000   -0.000000    0.000020   -0.000000   -0.000000
    3   -1   -1   15   16   -0.000000   -0.000009    0.000009    0.000000    0.000000    0.000000
    3   -1   -1   16   16    0.000000    0.000000   -0.000000   -0.000000   -0.000000   -0.000000
    3   -1   -1   17   16   -0.000012    0.000000    0.000000   -0.000012    0.000000   -0.000000
    3   -1   -1   18   16   -0.000000   -0.000000    0.000000    0.000000    0.000000    0.000000
    3   -1   -1    1   17    0.000000    0.000000    0.000000   -0.000000   -0.002148   -0.000000
    3   -1   -1    2   17   -0.000396   -0.000000   -0.000000   -0.000396    0.000000    0.000000
    3   -1   -1    3   17   -0.000000    0.000000   -0.000000   -0.000000    0.000000   -0.000000
    3   -1   -1    4   17    0.000000    0.000405    0.000405    0.000000   -0.000000   -0.000000
    3   -1   -1    5   17   -0.000000   -0.000860   -0.003143   -0.000000   -0.000000    0.000000
    3   -1   -1    6   17    0.000000   -0.000000   -0.000000   -0.000000   -0.000000   -0.000019
    3   -1   -1    7   17   -0.003143   -0.000000    0.000000    0.000860    0.000000    0.000000
    3   -1   -1    8   17    0.000000   -0.000000   -0.000000    0.000000   -0.000019    0.000000
    3   -1   -1    9   17   -0.000000   -0.000000    0.000000   -0.000000    0.000055    0.000000
    3   -1   -1   10   17   -0.000040    0.000000   -0.000000   -0.000040    0.000000    0.000000
    3   -1   -1   11   17   -0.000594    0.000000   -0.000000    0.000030    0.000000    0.000000
    3   -1   -1   12   17    0.000000    0.000000   -0.000000    0.000000   -0.000055    0.000000
    3   -1   -1   13   17    0.000000   -0.000030   -0.000594   -0.000000   -0.000000   -0.000000
    3   -1   -1   14   17   -0.000000   -0.000000    0.000000   -0.000000    0.000000   -0.000055
    3   -1   -1   15   17    0.000000    0.000000   -0.000000    0.000000    0.000000   -0.000000
    3   -1   -1   16   17    0.000010   -0.000000   -0.000000   -0.000010   -0.000000   -0.000000
    3   -1   -1   17   17    0.000000   -0.000000   -0.000000    0.000000   -0.000000    0.000000
    3   -1   -1   18   17   -0.000000   -0.000079   -0.000079    0.000000   -0.000000    0.000000
    3   -1   -1    1   18    0.000396   -0.000000    0.000000   -0.000396   -0.000000    0.000000
    3   -1   -1    2   18   -0.000000    0.000000   -0.000000    0.000000   -0.002148    0.000000
    3   -1   -1    3   18    0.000000    0.000405   -0.000405    0.000000   -0.000000   -0.000000
    3   -1   -1    4   18   -0.000000    0.000000   -0.000000    0.000000    0.000000   -0.000000
    3   -1   -1    5   18   -0.000000   -0.000000   -0.000000    0.000000    0.000000   -0.000019
    3   -1   -1    6   18   -0.000000    0.000860   -0.003143   -0.000000   -0.000000    0.000000
    3   -1   -1    7   18    0.000000    0.000000    0.000000   -0.000000    0.000019    0.000000
    3   -1   -1    8   18   -0.003143   -0.000000   -0.000000   -0.000860    0.000000   -0.000000
    3   -1   -1    9   18    0.000040   -0.000000   -0.000000   -0.000040   -0.000000   -0.000000
    3   -1   -1   10   18   -0.000000    0.000000    0.000000    0.000000    0.000055    0.000000
    3   -1   -1   11   18    0.000000   -0.000000   -0.000000   -0.000000    0.000055    0.000000
    3   -1   -1   12   18   -0.000594   -0.000000   -0.000000   -0.000030    0.000000    0.000000
    3   -1   -1   13   18   -0.000000    0.000000    0.000000    0.000000    0.000000   -0.000055
    3   -1   -1   14   18   -0.000000    0.000030   -0.000594   -0.000000    0.000000    0.000000
    3   -1   -1   15   18   -0.000010   -0.000000   -0.000000   -0.000010    0.000000   -0.000000
    3   -1   -1   16   18   -0.000000    0.000000    0.000000   -0.000000    0.000000    0.000000
    3   -1   -1   17   18   -0.000000   -0.000079    0.000079   -0.000000    0.000000   -0.000000
    3   -1   -1   18   18    0.000000   -0.000000   -0.000000    0.000000    0.000000   -0.000000
